#INFO: **** input file is /share/home/srwang/pyAutoMR/examples/guess/08-Cr2-RKS.py ****
from pyscf import gto, dft
from automr import guess

#mf=guess.from_fch_simp("v2.fchk", xc='pbe0')

#mf2.verbose=9
#mf2.stability()

mol = gto.Mole(atom='''Cr 0.0 0.0 0.0; Cr 0.0 0.0 1.6''', basis='def2-tzvp', verbose=5).build()
mf = dft.RKS(mol)
mf.xc = 'pbe0'
mf.kernel()

mf2 = guess.check_stab(mf, newton=True, res=True)

#INFO: ******************** input file end ********************


System: uname_result(system='Linux', node='xn01', release='3.10.0-1127.el7.x86_64', version='#1 SMP Tue Feb 18 16:39:12 EST 2020', machine='x86_64', processor='x86_64')  Threads 32
Python 3.7.4 (default, Aug 13 2019, 20:35:49) 
[GCC 7.3.0]
numpy 1.17.2  scipy 1.4.1
Date: Wed Sep 15 19:47:50 2021
PySCF version 1.7.6a1
PySCF path  /share/home/srwang/pyscf/pyscf
GIT ORIG_HEAD 80f71dfe77ac5f9caae26788acf76446987635bd
GIT HEAD      ref: refs/heads/master
GIT master branch  80f71dfe77ac5f9caae26788acf76446987635bd

[ENV] PYSCF_EXT_PATH /share/home/srwang/pyscf_ext/fciqmc:
[CONFIG] conf_file /share/home/srwang/.pyscf_conf.py
[INPUT] verbose = 5
[INPUT] max_memory = 4000 
[INPUT] num. atoms = 2
[INPUT] num. electrons = 48
[INPUT] charge = 0
[INPUT] spin (= nelec alpha-beta = 2S) = 0
[INPUT] symmetry False subgroup None
[INPUT] Mole.unit = angstrom
[INPUT]  1 Cr     0.000000000000   0.000000000000   0.000000000000 AA    0.000000000000   0.000000000000   0.000000000000 Bohr
[INPUT]  2 Cr     0.000000000000   0.000000000000   1.600000000000 AA    0.000000000000   0.000000000000   3.023561799304 Bohr
[INPUT] ---------------- BASIS SET ---------------- 
[INPUT] l, kappa, [nprim/nctr], expnt,             c_1 c_2 ...
[INPUT] Cr
[INPUT] 0    0    [8    /1   ]  254477.80704      0.00023386945693
                                38131.797054      0.00181426018
                                8675.2930607      0.0094363925721
                                2455.0099848      0.038343639367
                                799.16217787      0.12459194837
                                286.90021489      0.29489696029
                                111.25413232      0.41846149607
                                43.864152636      0.2163376342
[INPUT] 0    0    [4    /1   ]  279.32669173      -0.023450908111
                                86.274732376      -0.11080370027
                                13.555756113      0.53028965842
                                5.6978112751      0.51603516947
[INPUT] 0    0    [2    /1   ]  8.5636582615      -0.38109545675
                                1.3988296768      1.1991591436
[INPUT] 0    0    [1    /1   ]  0.57288171116        1
[INPUT] 0    0    [1    /1   ]  0.090096171317       1
[INPUT] 0    0    [1    /1   ]  0.034125885135       1
[INPUT] 1    0    [6    /1   ]  1306.4398864      0.0024277326185
                                309.25311441      0.019544041017
                                98.996273963      0.090651794553
                                36.756916451      0.25699279154
                                14.566657077      0.40935504891
                                5.8739937432      0.23729388849
[INPUT] 1    0    [3    /1   ]  22.890999695      -0.028166026613
                                3.0855001822      0.56034120148
                                1.2132329118      0.9811901965
[INPUT] 1    0    [1    /1   ]  0.44931680699        1
[INPUT] 1    0    [1    /1   ]  0.120675             1
[INPUT] 2    0    [4    /1   ]  43.720074476      0.013622964026
                                12.391242652      0.078935180133
                                4.2639442006      0.2383384
                                1.552522179       0.39526851122
[INPUT] 2    0    [1    /1   ]  0.53761929485        1
[INPUT] 2    0    [1    /1   ]  0.16493173074        1
[INPUT] 2    0    [1    /1   ]  0.051                1
[INPUT] 3    0    [1    /1   ]  1.147                1

nuclear repulsion = 190.5037959312
number of shells = 30
number of NR pGTOs = 184
number of NR cGTOs = 90
basis = def2-tzvp
ecp = {}
CPU time:         1.06


******** <class 'pyscf.dft.rks.RKS'> ********
method = RKS-RHF
initial guess = minao
damping factor = 0
level_shift factor = 0
DIIS = <class 'pyscf.scf.diis.CDIIS'>
diis_start_cycle = 1
diis_space = 8
SCF conv_tol = 1e-09
SCF conv_tol_grad = None
SCF max_cycles = 50
direct_scf = True
direct_scf_tol = 1e-13
chkfile to save SCF result = /share/home/srwang/pyAutoMR/examples/guess/tmpyy9zq208
max_memory 4000 MB (current use 104 MB)
XC functionals = pbe0
small_rho_cutoff = 1e-07
radial grids: 
    Treutler-Ahlrichs [JCP 102, 346 (1995); DOI:10.1063/1.469408] (M4) radial grids
    
becke partition: Becke, JCP 88, 2547 (1988); DOI:10.1063/1.454033
pruning grids: <function nwchem_prune at 0x2ac8bd4928c0>
grids dens level: 3
symmetrized grids: False
atomic radii adjust function: <function treutler_atomic_radii_adjust at 0x2ac8bd492d40>
Set gradient conv threshold to 3.16228e-05
atom Cr rad-grids = 90, ang-grids = [ 50  50  50  50  50  50  50  50  50  50  50  50  50  50  50  50  50  50  50  50  50  50  50  50  50  50  50  50  50  50  86  86  86  86  86  86  86  86  86
  86  86  86  86  86  86  86 350 350 350 350 350 350 350 350 350 350 350 434 434 434 434 434 434 434 434 434 434 434 434 434 434 434 434 434 434 434 434 434
 350 350 350 350 350 350 350 350 350 350 350 350]
tot grids = 40080
Drop grids 618
    CPU time for setting up grids      0.76 sec, wall time      0.03 sec
nelec by numeric integration = 47.9967174972231
    CPU time for vxc      1.93 sec, wall time      0.06 sec
E1 = -3236.883261795094  Ecoul = 1053.9047393417309  Exc = -95.97628486891472
init E= -2088.45101139108
cond(S) = 13299.666428910332
    CPU time for initialize scf      6.75 sec, wall time      0.24 sec

WARN: HOMO -0.376161323597328 == LUMO -0.376160566997615

  mo_energy =
[-216.414576 -216.41456   -25.233942  -25.23393   -21.491282  -21.491214  -21.487184  -21.487184  -21.487177  -21.487177   -3.363468   -3.239826   -2.356406
   -2.214234   -2.214234   -2.157766   -2.157766   -2.089795   -0.57255    -0.57255    -0.556005   -0.452788   -0.452788   -0.376161   -0.376161   -0.352799
   -0.315949   -0.315949   -0.288615   -0.142341   -0.110311   -0.110311   -0.022156    0.021842    0.021842    0.039237    0.053673    0.053673    0.070299
    0.116182    0.128295    0.128295    0.129208    0.129208    0.163788    0.2157      0.2157      0.354045    0.354046    0.363721    0.407424    0.407424
    0.465972    0.47944     0.47944     0.480351    0.548752    0.548752    1.047431    1.047431    1.181002    1.330897    1.330897    1.559628    1.643529
    1.643529    1.773841    1.773843    1.810214    1.932568    1.932569    1.96058     2.024407    2.084841    2.084841    2.463875    2.495357    2.495357
    2.518502    2.518504    2.690266    2.690266    2.744968    2.744968    2.824756    2.912424    2.912427    3.549953    3.549953    4.862558]
nelec by numeric integration = 47.999999086671565
    CPU time for vxc      1.67 sec, wall time      0.05 sec
E1 = -3301.645688891393  Ecoul = 1123.4733755856253  Exc = -99.40836998297105
cycle= 1 E= -2087.07688735754  delta_E= 1.37  |g|= 2.56  |ddm|= 3.14
    CPU time for cycle= 1      2.07 sec, wall time      0.06 sec
  HOMO = 0.126269859945085  LUMO = 0.128627847363373
  mo_energy =
[-214.556158 -214.556143  -23.42569   -23.425603  -19.689502  -19.689357  -19.662276  -19.662276  -19.66221   -19.66221    -2.042011   -1.953856   -1.133266
   -0.993913   -0.993913   -0.931996   -0.931996   -0.84306     0.002682    0.032367    0.097925    0.111823    0.111823    0.12627     0.128628    0.170396
    0.174708    0.174708    0.187344    0.190096    0.211289    0.217977    0.219504    0.219504    0.31643     0.339227    0.347838    0.347838    0.358625
    0.408823    0.408823    0.453688    0.462623    0.51585     0.642326    0.651026    0.655686    0.655686    0.839556    0.87733     0.87733     0.879075
    0.908156    0.914751    0.977792    1.011757    1.011757    1.109471    1.83495     1.83495     1.974152    2.094523    2.094523    2.288848    2.679785
    2.679785    2.694324    2.711739    2.729211    2.832757    2.852502    2.857066    2.970026    2.970026    3.014636    3.37085     3.37085     3.397382
    3.418149    3.419791    3.588904    3.588904    3.645252    3.645252    3.77781     3.842243    3.844867    4.556006    4.556006    6.013299]
nelec by numeric integration = 48.000000468397666
    CPU time for vxc      1.64 sec, wall time      0.05 sec
E1 = -3046.6441040224518  Ecoul = 875.9681920536848  Exc = -89.09797910915466
cycle= 2 E= -2069.27009514672  delta_E= 17.8  |g|=  6.8  |ddm|= 33.7
    CPU time for cycle= 2      2.04 sec, wall time      0.06 sec
  HOMO = -0.422534601319526  LUMO = -0.335035824785943
  mo_energy =
[-216.305936 -216.305921  -25.086568  -25.086494  -21.36103   -21.360913  -21.33901   -21.33901   -21.338959  -21.338959   -3.288794   -3.179357   -2.32055
   -2.168137   -2.168137   -2.112572   -2.112572   -2.062764   -0.594113   -0.594113   -0.578435   -0.505804   -0.468304   -0.422535   -0.335036   -0.327205
   -0.276053   -0.276053   -0.265155   -0.178614   -0.170779   -0.170779   -0.053132   -0.014095   -0.014095    0.006316    0.01182     0.021657    0.060449
    0.107279    0.107758    0.107758    0.10842     0.110474    0.141304    0.177649    0.177649    0.303874    0.309682    0.326022    0.359946    0.359946
    0.410899    0.422028    0.427876    0.443068    0.487471    0.487471    1.014473    1.014473    1.153291    1.294793    1.294793    1.514919    1.63885
    1.63885     1.753046    1.760917    1.786608    1.905695    1.914084    1.952048    2.002358    2.051404    2.051404    2.422929    2.447856    2.447856
    2.474038    2.47572     2.650108    2.650108    2.706139    2.706139    2.795391    2.875291    2.877292    3.528351    3.528351    4.873436]
nelec by numeric integration = 47.999999323523944
    CPU time for vxc      1.66 sec, wall time      0.05 sec
E1 = -3287.7662721167917  Ecoul = 1108.1375217816621  Exc = -98.5299352328744
cycle= 3 E= -2087.6548896368  delta_E= -18.4  |g|= 1.49  |ddm|= 33.7
    CPU time for cycle= 3      1.99 sec, wall time      0.06 sec
  HOMO = -0.0549026499993219  LUMO = -0.0174885961656233
  mo_energy =
[-215.987015 -215.986999  -24.710651  -24.710591  -20.989485  -20.989364  -20.973387  -20.973387  -20.973339  -20.973339   -2.791566   -2.699389   -1.83209
   -1.688075   -1.688075   -1.637523   -1.637523   -1.580803   -0.152456   -0.143825   -0.143825   -0.091994   -0.061996   -0.054903   -0.017489   -0.002323
    0.062354    0.062354    0.081912    0.081912    0.091726    0.104862    0.121412    0.128809    0.129196    0.134967    0.146257    0.17977     0.18363
    0.18363     0.186165    0.186165    0.188602    0.204452    0.325628    0.382994    0.382994    0.470628    0.564131    0.57405     0.61598     0.61598
    0.646906    0.653147    0.656786    0.683906    0.683906    0.685477    1.399218    1.399218    1.522405    1.663837    1.663837    1.851236    2.070845
    2.070845    2.160482    2.169018    2.203592    2.298058    2.307125    2.372389    2.379879    2.448509    2.448509    2.894817    2.912807    2.912807
    2.956564    2.958596    3.134447    3.134447    3.19026     3.19026     3.276637    3.370156    3.372518    4.038267    4.038267    5.385479]
nelec by numeric integration = 47.999999638925836
    CPU time for vxc      1.67 sec, wall time      0.05 sec
E1 = -3237.6834146094843  Ecoul = 1055.0006326115008  Exc = -95.9875371746361
cycle= 4 E= -2088.16652324142  delta_E= -0.512  |g|= 0.814  |ddm|=    2
    CPU time for cycle= 4      2.00 sec, wall time      0.06 sec
  HOMO = -0.124873792199485  LUMO = -0.0455766174943798
  mo_energy =
[-215.934891 -215.934876  -24.712552  -24.712488  -20.978519  -20.978387  -20.970853  -20.970853  -20.970783  -20.970783   -2.875296   -2.778822   -1.903223
   -1.774371   -1.774371   -1.721408   -1.721408   -1.647848   -0.226821   -0.226821   -0.219949   -0.153692   -0.133671   -0.124874   -0.045577   -0.025302
    0.029228    0.029228    0.029232    0.037845    0.037845    0.064487    0.078136    0.099125    0.10896     0.11035     0.124348    0.132709    0.132709
    0.161948    0.164192    0.165963    0.165963    0.167388    0.28276     0.339928    0.339928    0.445153    0.517927    0.522478    0.56934     0.56934
    0.608978    0.609613    0.613978    0.641146    0.651536    0.651536    1.332784    1.332784    1.469579    1.600211    1.600211    1.810571    2.002052
    2.002052    2.094041    2.098787    2.13108     2.23532     2.240328    2.307624    2.320046    2.3876      2.3876      2.816341    2.831672    2.831672
    2.866806    2.867967    3.036001    3.036001    3.092695    3.092695    3.192089    3.277538    3.278829    3.946439    3.946439    5.301098]
nelec by numeric integration = 47.99999962572199
    CPU time for vxc      1.61 sec, wall time      0.05 sec
E1 = -3243.770045109086  Ecoul = 1061.2254791909506  Exc = -96.22469990450836
cycle= 5 E= -2088.26546989144  delta_E= -0.0989  |g|= 0.539  |ddm|= 0.576
    CPU time for cycle= 5      1.94 sec, wall time      0.06 sec
  HOMO = -0.170246027494149  LUMO = -0.0629105110734891
  mo_energy =
[-216.001483 -216.001467  -24.791046  -24.790983  -21.053122  -21.052986  -21.049193  -21.049193  -21.049108  -21.049108   -2.947308   -2.853975   -1.969076
   -1.846686   -1.846686   -1.794996   -1.794996   -1.715041   -0.284523   -0.284523   -0.273151   -0.196844   -0.191079   -0.170246   -0.062911   -0.048913
   -0.033725   -0.002443   -0.002443    0.01511     0.01511     0.037655    0.048507    0.08626     0.098814    0.098814    0.099734    0.100134    0.109505
    0.148419    0.154424    0.154824    0.157727    0.157727    0.258048    0.31385     0.31385     0.429975    0.49057     0.49177     0.543605    0.543605
    0.586808    0.586983    0.588088    0.609676    0.631514    0.631514    1.287772    1.287772    1.42634     1.554012    1.554012    1.764592    1.948147
    1.948147    2.044608    2.046056    2.077685    2.186325    2.187845    2.257216    2.268984    2.338826    2.338826    2.765077    2.778284    2.778284
    2.810963    2.811257    2.976218    2.976218    3.033315    3.033315    3.13818     3.220626    3.220996    3.888903    3.888903    5.244962]
nelec by numeric integration = 47.99999955171584
    CPU time for vxc      1.62 sec, wall time      0.05 sec
E1 = -3251.7989739023715  Ecoul = 1069.600827990579  Exc = -96.62383878030946
cycle= 6 E= -2088.3181887609  delta_E= -0.0527  |g|= 0.112  |ddm|= 0.486
    CPU time for cycle= 6      1.95 sec, wall time      0.06 sec
  HOMO = -0.185170636035742  LUMO = -0.0655884358055284
  mo_energy =
[-216.008947 -216.008931  -24.805797  -24.805733  -21.06516   -21.06502   -21.063823  -21.063823  -21.063731  -21.063731   -2.967295   -2.871765   -1.983471
   -1.865712   -1.865712   -1.813206   -1.813206   -1.729789   -0.29956    -0.29956    -0.287176   -0.208049   -0.206869   -0.185171   -0.065588   -0.050837
   -0.048033   -0.011383   -0.011383    0.00817     0.00817     0.026938    0.044592    0.082736    0.092324    0.092324    0.097092    0.09718     0.10681
    0.144869    0.152568    0.152603    0.155981    0.155981    0.252376    0.308259    0.308259    0.427781    0.483008    0.483144    0.53618     0.53618
    0.580595    0.581751    0.58195     0.602594    0.628106    0.628106    1.275754    1.275754    1.417474    1.543763    1.543763    1.761508    1.934572
    1.934572    2.031922    2.032089    2.064697    2.174851    2.175042    2.24524     2.255534    2.328166    2.328166    2.751481    2.766084    2.766084
    2.797164    2.797234    2.960362    2.960362    3.017777    3.017777    3.124093    3.206231    3.206291    3.873401    3.873401    5.22639 ]
nelec by numeric integration = 47.99999953348749
    CPU time for vxc      1.63 sec, wall time      0.05 sec
E1 = -3253.939160042863  Ecoul = 1071.837763530982  Exc = -96.72291501927415
cycle= 7 E= -2088.32051559996  delta_E= -0.00233  |g|= 0.0242  |ddm|= 0.159
    CPU time for cycle= 7      1.96 sec, wall time      0.06 sec
  HOMO = -0.183015703191281  LUMO = -0.0652391783648888
  mo_energy =
[-216.005444 -216.005425  -24.802674  -24.802609  -21.062022  -21.061882  -21.060666  -21.060666  -21.060574  -21.060574   -2.964818   -2.869582   -1.981716
   -1.863457   -1.863457   -1.81104    -1.81104    -1.727938   -0.297991   -0.297991   -0.285661   -0.206033   -0.20598    -0.183016   -0.065239   -0.048889
   -0.048702   -0.010442   -0.010442    0.008672    0.008672    0.028209    0.044605    0.082776    0.092948    0.092948    0.097186    0.09719     0.107169
    0.145225    0.152701    0.15271     0.156025    0.156025    0.252672    0.308736    0.308736    0.42789     0.483766    0.483783    0.536745    0.536745
    0.581095    0.582384    0.58241     0.603222    0.628305    0.628305    1.27691     1.27691     1.418309    1.544797    1.544797    1.761544    1.936038
    1.936038    2.033468    2.033482    2.06592     2.176278    2.176293    2.246484    2.257154    2.329275    2.329275    2.752906    2.767175    2.767175
    2.79848     2.79848     2.961976    2.961976    3.019339    3.019339    3.1254      3.207658    3.207658    3.874925    3.874925    5.228504]
nelec by numeric integration = 47.999999536532215
    CPU time for vxc      1.63 sec, wall time      0.05 sec
E1 = -3253.6599422847753  Ecoul = 1071.5444164323628  Exc = -96.70886864273925
cycle= 8 E= -2088.32059856395  delta_E= -8.3e-05  |g|= 0.00441  |ddm|= 0.0143
    CPU time for cycle= 8      1.97 sec, wall time      0.06 sec
  HOMO = -0.182549046204418  LUMO = -0.064950488485653
  mo_energy =
[-216.004558 -216.004367  -24.80172   -24.801526  -21.061071  -21.06084   -21.0597    -21.0597    -21.059493  -21.059493   -2.963843   -2.868634   -1.980794
   -1.862504   -1.862504   -1.810096   -1.810096   -1.727021   -0.29712    -0.29712    -0.284865   -0.2052     -0.20519    -0.182549   -0.06495    -0.048043
   -0.047985   -0.009881   -0.009881    0.009102    0.009102    0.028887    0.04482     0.082984    0.093339    0.093339    0.097399    0.097404    0.107336
    0.14542     0.152853    0.152857    0.156184    0.156184    0.253022    0.309144    0.309144    0.428161    0.484271    0.484276    0.537224    0.537224
    0.581531    0.582802    0.582811    0.603668    0.62864     0.62864     1.27761     1.27761     1.418946    1.545478    1.545478    1.762108    1.936855
    1.936855    2.034263    2.034267    2.066657    2.177033    2.177037    2.247169    2.257949    2.329988    2.329988    2.753719    2.767954    2.767954
    2.799302    2.799304    2.962833    2.962833    3.020192    3.020192    3.12624     3.208515    3.208518    3.875818    3.875818    5.229429]
nelec by numeric integration = 47.999999536982614
    CPU time for vxc      1.65 sec, wall time      0.05 sec
E1 = -3253.5989135110435  Ecoul = 1071.4803567354818  Exc = -96.70583935231292
cycle= 9 E= -2088.32060019668  delta_E= -1.63e-06  |g|= 0.00438  |ddm|= 0.00318
    CPU time for cycle= 9      1.99 sec, wall time      0.06 sec
  HOMO = -0.182480834381039  LUMO = -0.0649197338756827
  mo_energy =
[-216.004401 -216.004364  -24.801562  -24.80149   -21.060934  -21.060791  -21.059549  -21.059549  -21.059452  -21.059452   -2.963737   -2.868528   -1.980697
   -1.862398   -1.862398   -1.809991   -1.809991   -1.726924   -0.297029   -0.297029   -0.284781   -0.205116   -0.205109   -0.182481   -0.06492    -0.047947
   -0.047936   -0.00982    -0.00982     0.009144    0.009144    0.028959    0.044844    0.083005    0.093381    0.093381    0.097418    0.097422    0.107358
    0.145442    0.152868    0.152872    0.156199    0.156199    0.25306     0.309186    0.309186    0.428187    0.484322    0.484324    0.537269    0.537269
    0.581572    0.582845    0.582851    0.603716    0.628674    0.628674    1.277682    1.277682    1.419013    1.54555     1.54555     1.76217     1.936938
    1.936938    2.034346    2.034346    2.066738    2.177113    2.177113    2.247245    2.25803     2.330064    2.330064    2.753804    2.768039    2.768039
    2.799392    2.799395    2.962929    2.962929    3.020288    3.020288    3.126328    3.208608    3.208611    3.875912    3.875912    5.229524]
nelec by numeric integration = 47.99999953705364
    CPU time for vxc      1.66 sec, wall time      0.05 sec
E1 = -3253.590645842765  Ecoul = 1071.4716790671366  Exc = -96.70543122827151
cycle= 10 E= -2088.3206020727  delta_E= -1.88e-06  |g|= 0.000814  |ddm|= 0.00122
    CPU time for cycle= 10      2.00 sec, wall time      0.06 sec
  HOMO = -0.182425482157778  LUMO = -0.064872548427521
  mo_energy =
[-216.004294 -216.004278  -24.801451  -24.801388  -21.060833  -21.060693  -21.059438  -21.059438  -21.059347  -21.059347   -2.963632   -2.868424   -1.980603
   -1.862292   -1.862292   -1.809885   -1.809885   -1.726826   -0.296938   -0.296938   -0.284697   -0.205022   -0.205018   -0.182425   -0.064873   -0.047856
   -0.04785    -0.009752   -0.009752    0.009195    0.009195    0.029038    0.044884    0.083036    0.093431    0.093431    0.09745     0.097451    0.107385
    0.145474    0.152894    0.152895    0.156228    0.156228    0.253106    0.309236    0.309236    0.428224    0.484382    0.484383    0.537327    0.537327
    0.581624    0.582899    0.582899    0.603775    0.628721    0.628721    1.277764    1.277764    1.419086    1.545632    1.545632    1.762241    1.937022
    1.937022    2.034435    2.034436    2.066825    2.177203    2.177203    2.247327    2.258114    2.330151    2.330151    2.753897    2.76813     2.76813
    2.799487    2.799489    2.96303     2.96303     3.020388    3.020388    3.126416    3.208703    3.208706    3.876004    3.876004    5.229616]
nelec by numeric integration = 47.99999953710637
    CPU time for vxc      1.62 sec, wall time      0.05 sec
E1 = -3253.5845867213056  Ecoul = 1071.4653145277819  Exc = -96.7051258891308
cycle= 11 E= -2088.32060215145  delta_E= -7.88e-08  |g|= 5.82e-05  |ddm|= 0.000362
    CPU time for cycle= 11      1.96 sec, wall time      0.06 sec
  HOMO = -0.182435064259682  LUMO = -0.0648767061811229
  mo_energy =
[-216.004304 -216.004288  -24.801465  -24.801401  -21.060845  -21.060705  -21.059452  -21.059452  -21.05936   -21.05936    -2.963648   -2.86844    -1.980616
   -1.862308   -1.862308   -1.809901   -1.809901   -1.72684    -0.296952   -0.296952   -0.28471    -0.205033   -0.205033   -0.182435   -0.064877   -0.047866
   -0.047865   -0.009762   -0.009762    0.009187    0.009187    0.029028    0.044882    0.083033    0.093426    0.093426    0.097447    0.097448    0.107382
    0.145471    0.152893    0.152893    0.156226    0.156226    0.253101    0.30923     0.30923     0.428219    0.484374    0.484375    0.53732     0.53732
    0.581617    0.582891    0.582891    0.603767    0.628715    0.628715    1.277752    1.277752    1.419076    1.545621    1.545621    1.762232    1.93701
    1.93701     2.034422    2.034424    2.066813    2.177191    2.177191    2.247315    2.258102    2.330139    2.330139    2.753884    2.768117    2.768117
    2.799473    2.799475    2.963015    2.963015    3.020373    3.020373    3.126403    3.208689    3.208692    3.87599     3.87599     5.229603]
nelec by numeric integration = 47.99999953709681
    CPU time for vxc      1.63 sec, wall time      0.05 sec
E1 = -3253.585618532724  Ecoul = 1071.4663969392684  Exc = -96.70517648993464
cycle= 12 E= -2088.32060215219  delta_E= -7.35e-10  |g|= 3.25e-06  |ddm|= 9.9e-05
    CPU time for cycle= 12      1.97 sec, wall time      0.06 sec
  HOMO = -0.182434807036089  LUMO = -0.0648766154768451
  mo_energy =
[-216.004302 -216.004287  -24.801463  -24.8014    -21.060843  -21.060704  -21.05945   -21.05945   -21.059359  -21.059359   -2.963647   -2.868439   -1.980615
   -1.862308   -1.862308   -1.8099     -1.8099     -1.726838   -0.296951   -0.296951   -0.284709   -0.205033   -0.205032   -0.182435   -0.064877   -0.047865
   -0.047865   -0.009761   -0.009761    0.009187    0.009187    0.029028    0.044882    0.083033    0.093426    0.093426    0.097447    0.097447    0.107382
    0.145472    0.152892    0.152893    0.156226    0.156226    0.253101    0.30923     0.30923     0.428219    0.484375    0.484375    0.53732     0.53732
    0.581617    0.582891    0.582892    0.603768    0.628715    0.628715    1.277753    1.277753    1.419077    1.545621    1.545621    1.762233    1.93701
    1.93701     2.034423    2.034424    2.066813    2.177191    2.177192    2.247316    2.258103    2.330139    2.330139    2.753884    2.768117    2.768117
    2.799474    2.799475    2.963015    2.963015    3.020374    3.020374    3.126404    3.208689    3.208692    3.875991    3.875991    5.229604]
nelec by numeric integration = 47.99999953709824
    CPU time for vxc      1.64 sec, wall time      0.05 sec
E1 = -3253.5855109348954  Ecoul = 1071.466283369181  Exc = -96.70517051768422
Extra cycle  E= -2088.3206021522  delta_E= -8.64e-12  |g|= 6.33e-06  |ddm|= 4.54e-06
    CPU time for scf_cycle     32.56 sec, wall time      1.05 sec
    CPU time for SCF     32.56 sec, wall time      1.05 sec
converged SCF energy = -2088.3206021522
**** checking RHF/RKS internal stability ...
nelec by numeric integration = 47.99999953709824
    CPU time for vxc      1.65 sec, wall time      0.05 sec
tol 0.0001  toloose 0.01
max_cycle 50  max_space 12  max_memory 2000  incore True
davidson 0 1  |r|= 4.26  e= [1.944697]  max|de|= 1.94  lindep= 0.994
davidson 1 2  |r|= 3.23  e= [1.421427]  max|de|= -0.523  lindep= 0.84
davidson 2 3  |r|= 1.35  e= [1.155241]  max|de|= -0.266  lindep= 0.975
davidson 3 4  |r|= 0.729  e= [0.865572]  max|de|= -0.29  lindep= 0.993
davidson 4 5  |r|= 0.572  e= [0.667085]  max|de|= -0.198  lindep= 0.977
davidson 5 6  |r|= 0.507  e= [0.605632]  max|de|= -0.0615  lindep= 0.89
davidson 6 7  |r|= 0.52  e= [0.540349]  max|de|= -0.0653  lindep= 0.981
davidson 7 8  |r|= 0.217  e= [0.239211]  max|de|= -0.301  lindep= 0.984
davidson 8 9  |r|= 0.478  e= [0.070926]  max|de|= -0.168  lindep= 0.985
davidson 9 10  |r|= 0.316  e= [0.011786]  max|de|= -0.0591  lindep= 0.927
davidson 10 11  |r|= 0.181  e= [-0.006425]  max|de|= -0.0182  lindep= 0.919
davidson 11 12  |r|= 0.0689  e= [-0.008913]  max|de|= -0.00249  lindep= 0.95
davidson 12 1  |r|= 0.0689  e= [-0.008913]  max|de|= -7.6e-16  lindep=    1
davidson 13 2  |r|= 0.0252  e= [-0.009242]  max|de|= -0.000328  lindep= 0.993
davidson 14 3  |r|= 0.0206  e= [-0.009266]  max|de|= -2.42e-05  lindep= 0.969
root 0 converged  |r|= 0.00952  e= -0.00931983581464914  max|de|= -5.41e-05
converged 15 4  |r|= 0.00952  e= [-0.00932]  max|de|= -5.41e-05
RHF/RKS wavefunction has an internal instability




******** <class 'pyscf.dft.rks.RKS'> ********
method = RKS-RHF
initial guess = minao
damping factor = 0
level_shift factor = 0
DIIS = <class 'pyscf.scf.diis.CDIIS'>
diis_start_cycle = 1
diis_space = 8
SCF conv_tol = 1e-09
SCF conv_tol_grad = None
SCF max_cycles = 50
direct_scf = True
direct_scf_tol = 1e-13
chkfile to save SCF result = /share/home/srwang/pyAutoMR/examples/guess/tmpyy9zq208
max_memory 4000 MB (current use 490 MB)
XC functionals = pbe0
small_rho_cutoff = 1e-07
radial grids: 
    Treutler-Ahlrichs [JCP 102, 346 (1995); DOI:10.1063/1.469408] (M4) radial grids
    
becke partition: Becke, JCP 88, 2547 (1988); DOI:10.1063/1.454033
pruning grids: <function nwchem_prune at 0x2ac8bd4928c0>
grids dens level: 3
symmetrized grids: False
atomic radii adjust function: <function treutler_atomic_radii_adjust at 0x2ac8bd492d40>
******** <class 'pyscf.dft.rks.RKS'> Newton solver flags ********
SCF tol = 1e-09
conv_tol_grad = None
max. SCF cycles = 50
direct_scf = True
direct_scf_tol = 1e-13
chkfile to save SCF result = /share/home/srwang/pyAutoMR/examples/guess/tmpyy9zq208
max_cycle_inner = 12
max_stepsize = 0.05
ah_start_tol = 1e+09
ah_level_shift = 0
ah_conv_tol = 1e-12
ah_lindep = 1e-14
ah_start_cycle = 1
ah_max_cycle = 40
ah_grad_trust_region = 2.5
kf_interval = 4
kf_trust_region = 5
canonicalization = True
max_memory 4000 MB (current use 490 MB)
Set conv_tol_grad to 3.16228e-05
  HOMO = -0.16453039317127  LUMO = -0.0553378888876835
Initial guess E= -2088.2849570567  |g|= 0.376537
macro= 0  E= -2088.31978387183  delta_E= -0.0348268  |g|= 0.0294408  3 KF 11 JK
macro= 1  E= -2088.32052690001  delta_E= -0.000743028  |g|= 0.0130387  2 KF 8 JK
macro= 2  E= -2088.32065673247  delta_E= -0.000129832  |g|= 0.000926958  3 KF 12 JK
macro= 3  E= -2088.32065705849  delta_E= -3.26024e-07  |g|= 0.000443601  1 KF 5 JK
macro= 4  E= -2088.32066064752  delta_E= -3.58903e-06  |g|= 9.9275e-05  2 KF 10 JK
macro= 5  E= -2088.32066064771  delta_E= -1.9736e-10  |g|= 1.45623e-05  1 KF 5 JK
Canonicalize SCF orbitals
macro X = 6  E=-2088.32066064771  |g|= 1.45623e-05  total 13 KF 58 JK
converged SCF energy = -2088.32066064771
**** checking RHF/RKS internal stability ...
nelec by numeric integration = 47.99999953488875
    CPU time for vxc      1.78 sec, wall time      0.06 sec
tol 0.0001  toloose 0.01
max_cycle 50  max_space 12  max_memory 2000  incore True
davidson 0 1  |r|= 3.38  e= [1.56149]  max|de|= 1.56  lindep= 0.999
davidson 1 2  |r|= 3.07  e= [1.451583]  max|de|= -0.11  lindep= 0.952
davidson 2 3  |r|= 0.688  e= [1.257341]  max|de|= -0.194  lindep= 0.998
davidson 3 4  |r|= 0.575  e= [0.958419]  max|de|= -0.299  lindep= 0.992
davidson 4 5  |r|= 0.406  e= [0.63772]  max|de|= -0.321  lindep= 0.947
davidson 5 6  |r|= 0.611  e= [0.583824]  max|de|= -0.0539  lindep= 0.979
davidson 6 7  |r|= 1.27  e= [0.346133]  max|de|= -0.238  lindep= 0.91
davidson 7 8  |r|= 0.507  e= [0.069052]  max|de|= -0.277  lindep= 0.938
davidson 8 9  |r|= 0.253  e= [0.011143]  max|de|= -0.0579  lindep= 0.769
davidson 9 10  |r|= 0.13  e= [0.003062]  max|de|= -0.00808  lindep= 0.927
davidson 10 11  |r|= 0.0316  e= [0.001476]  max|de|= -0.00159  lindep= 0.905
davidson 11 12  |r|= 0.0247  e= [0.001239]  max|de|= -0.000237  lindep= 0.784
davidson 12 1  |r|= 0.0247  e= [0.001239]  max|de|= -1.33e-15  lindep=    1
davidson 13 2  |r|= 0.0185  e= [0.001145]  max|de|= -9.4e-05  lindep= 0.741
davidson 14 3  |r|= 0.0424  e= [0.00104]  max|de|= -0.000104  lindep= 0.964
davidson 15 4  |r|= 0.0444  e= [0.00091]  max|de|= -0.00013  lindep= 0.933
davidson 16 5  |r|= 0.0361  e= [0.000573]  max|de|= -0.000337  lindep= 0.92
davidson 17 6  |r|= 0.0283  e= [0.000327]  max|de|= -0.000246  lindep= 0.823
davidson 18 7  |r|= 0.0212  e= [0.000178]  max|de|= -0.000149  lindep= 0.864
davidson 19 8  |r|= 0.0102  e= [0.00011]  max|de|= -6.85e-05  lindep= 0.859
root 0 converged  |r|= 0.00574  e= 8.648855298263795e-05  max|de|= -2.32e-05
converged 20 9  |r|= 0.00574  e= [0.000086]  max|de|= -2.32e-05
RHF/RKS wavefunction is stable in the internal stability analysis
