#INFO: **** input file is /share/home/srwang/pyAutoMR/examples/10-Cu2O2-mix.py ****
from pyscf import lib
import guess

lib.num_threads(8)

# structure from dx.doi.org/10.1021/ct300689e | J. Chem. Theory Comput. 2012, 8, 4944−4949
xyz = '''
 Cu                 1.4    0.0     0.0
 Cu                -1.4    0.0     0.0
 O                  0.0    1.15    0.0
 O                  0.0   -1.15    0.0
'''
mf = guess.mix(xyz, 'def2-tzvp', charge=2, conv='tight')
# stability check of UHF will be performed

#mf2 = util.SUHF(mf)
#mf2.level_shift = 0.3
#mf2.max_cycle = 100
#mf2.conv_tol = 1e-6
#mf2.kernel()
# E = -3426.9194811

#INFO: ******************** input file end ********************


System: uname_result(system='Linux', node='xn01', release='3.10.0-1127.el7.x86_64', version='#1 SMP Tue Feb 18 16:39:12 EST 2020', machine='x86_64', processor='x86_64')  Threads 8
Python 3.7.4 (default, Aug 13 2019, 20:35:49) 
[GCC 7.3.0]
numpy 1.17.2  scipy 1.4.1
Date: Sun Jul  4 21:24:30 2021
PySCF version 1.7.6a1
PySCF path  /share/home/srwang/pyscf/pyscf
GIT HEAD      ref: refs/heads/master
GIT master branch  80f71dfe77ac5f9caae26788acf76446987635bd

[CONFIG] conf_file /share/home/srwang/.pyscf_conf.py
[INPUT] verbose = 4
[INPUT] num. atoms = 4
[INPUT] num. electrons = 72
[INPUT] charge = 2
[INPUT] spin (= nelec alpha-beta = 2S) = 0
[INPUT] symmetry False subgroup None
[INPUT] Mole.unit = angstrom
[INPUT]  1 Cu     1.400000000000   0.000000000000   0.000000000000 AA    2.645616574391   0.000000000000   0.000000000000 Bohr
[INPUT]  2 Cu    -1.400000000000   0.000000000000   0.000000000000 AA   -2.645616574391   0.000000000000   0.000000000000 Bohr
[INPUT]  3 O      0.000000000000   1.150000000000   0.000000000000 AA    0.000000000000   2.173185043250   0.000000000000 Bohr
[INPUT]  4 O      0.000000000000  -1.150000000000   0.000000000000 AA    0.000000000000  -2.173185043250   0.000000000000 Bohr

nuclear repulsion = 444.71541996192
number of shells = 52
number of NR pGTOs = 276
number of NR cGTOs = 152
basis = def2-tzvp
ecp = {}
CPU time:         1.03


******** <class 'pyscf.scf.hf.RHF'> ********
method = RHF
initial guess = minao
damping factor = 0
level_shift factor = 0
DIIS = <class 'pyscf.scf.diis.CDIIS'>
diis_start_cycle = 1
diis_space = 8
SCF conv_tol = 1e-05
SCF conv_tol_grad = None
SCF max_cycles = 50
direct_scf = True
direct_scf_tol = 1e-13
chkfile to save SCF result = /share/home/srwang/pyAutoMR/examples/tmp346eb47j
max_memory 4000 MB (current use 104 MB)
Set gradient conv threshold to 0.00316228
init E= -3426.65751445459
  HOMO = -0.321937791461457  LUMO = -0.256769518934497
cycle= 1 E= -3425.40259372256  delta_E= 1.25  |g|= 3.57  |ddm|= 2.13
  HOMO = -0.848664689654651  LUMO = -0.722554210128429
cycle= 2 E= -3424.05952509318  delta_E= 1.34  |g|= 5.51  |ddm|= 2.65
  HOMO = -0.998135496428858  LUMO = -0.62072347888309
cycle= 3 E= -3426.53867611467  delta_E= -2.48  |g|= 0.486  |ddm|=  1.7
  HOMO = -0.934926736461443  LUMO = -0.53878177657328
cycle= 4 E= -3426.56201987874  delta_E= -0.0233  |g|= 0.105  |ddm|= 0.184
  HOMO = -0.950942234978812  LUMO = -0.547482833293717
cycle= 5 E= -3426.56367605768  delta_E= -0.00166  |g|= 0.0392  |ddm|= 0.0512
  HOMO = -0.94679671426459  LUMO = -0.54452698697338
cycle= 6 E= -3426.56410887327  delta_E= -0.000433  |g|= 0.0201  |ddm|= 0.0314
  HOMO = -0.945899271471955  LUMO = -0.544278069925508
cycle= 7 E= -3426.56423966751  delta_E= -0.000131  |g|= 0.00923  |ddm|= 0.0206
  HOMO = -0.945190968159203  LUMO = -0.544082937810253
cycle= 8 E= -3426.56426428251  delta_E= -2.46e-05  |g|= 0.0029  |ddm|= 0.0103
  HOMO = -0.945031812927799  LUMO = -0.544044473219455
cycle= 9 E= -3426.56426611732  delta_E= -1.83e-06  |g|= 0.000352  |ddm|= 0.00269
  HOMO = -0.945042156972112  LUMO = -0.544051768376147
Extra cycle  E= -3426.56426615969  delta_E= -4.24e-08  |g|= 0.000276  |ddm|= 0.000291
converged SCF energy = -3426.56426615969
**** generating mix guess ****
rotating angle: 0.25 pi


******** <class 'pyscf.scf.uhf.UHF'> ********
method = UHF
initial guess = minao
damping factor = 0
level_shift factor = 0
DIIS = <class 'pyscf.scf.diis.CDIIS'>
diis_start_cycle = 1
diis_space = 8
SCF conv_tol = 1e-09
SCF conv_tol_grad = None
SCF max_cycles = 100
direct_scf = True
direct_scf_tol = 1e-13
chkfile to save SCF result = /share/home/srwang/pyAutoMR/examples/tmp1kducm8c
max_memory 4000 MB (current use 675 MB)
number electrons alpha = 36  beta = 36
Set gradient conv threshold to 3.16228e-05
init E= -3773.08809666459
  alpha nocc = 36  HOMO = 20.6883819333717  LUMO = 20.7697679092118
  beta  nocc = 36  HOMO = 20.6883819333717  LUMO = 20.7697679092118
cycle= 1 E= -1937.50805557138  delta_E= 1.84e+03  |g|= 19.3  |ddm|=  693
  alpha nocc = 36  HOMO = -14.6220109660194  LUMO = -14.6178502498525
  beta  nocc = 36  HOMO = -14.6220109660194  LUMO = -14.6178502498525
cycle= 2 E= -3260.90879344309  delta_E= -1.32e+03  |g|= 15.2  |ddm|=  692
  alpha nocc = 36  HOMO = -4.58521050604287  LUMO = -4.41919768001263
  beta  nocc = 36  HOMO = -4.58521050604287  LUMO = -4.41919768001262
cycle= 3 E= -3388.66392814375  delta_E= -128  |g|= 13.5  |ddm|= 18.7
  alpha nocc = 36  HOMO = -2.80906390741931  LUMO = -2.6955016881204
  beta  nocc = 36  HOMO = -2.80906390741932  LUMO = -2.69550168812042
cycle= 4 E= -3399.59791934312  delta_E= -10.9  |g|=   12  |ddm|= 2.78
  alpha nocc = 36  HOMO = -2.8503623659171  LUMO = -2.55570452865564
  beta  nocc = 36  HOMO = -2.8503623659171  LUMO = -2.55570452865564
cycle= 5 E= -3402.50460058975  delta_E= -2.91  |g|= 11.5  |ddm|= 0.51
  alpha nocc = 36  HOMO = -2.42433359895026  LUMO = -1.97005667080167
  beta  nocc = 36  HOMO = -2.42433359895029  LUMO = -1.97005667080168
cycle= 6 E= -3410.37235816464  delta_E= -7.87  |g|= 9.84  |ddm|= 1.19
  alpha nocc = 36  HOMO = -2.03210872539521  LUMO = -1.40871931616823
  beta  nocc = 36  HOMO = -2.03210872539521  LUMO = -1.40871931616822
cycle= 7 E= -3415.15798316779  delta_E= -4.79  |g|= 8.51  |ddm|= 1.11
  alpha nocc = 36  HOMO = -1.92533494916948  LUMO = -1.24880232929508
  beta  nocc = 36  HOMO = -1.92533494916948  LUMO = -1.24880232929507
cycle= 8 E= -3417.60071622277  delta_E= -2.44  |g|= 7.61  |ddm|= 0.515
  alpha nocc = 36  HOMO = -1.45146810346799  LUMO = -0.776568228784749
  beta  nocc = 36  HOMO = -1.45146810346799  LUMO = -0.776568228784783
cycle= 9 E= -3419.49389405561  delta_E= -1.89  |g|=  6.9  |ddm|= 0.881
  alpha nocc = 36  HOMO = -0.940350151209265  LUMO = -0.315631349026932
  beta  nocc = 36  HOMO = -0.940350151209255  LUMO = -0.315631349026928
cycle= 10 E= -3426.39272746755  delta_E= -6.9  |g|= 0.695  |ddm|= 1.76
  alpha nocc = 36  HOMO = -0.879812030011511  LUMO = -0.500285741603029
  beta  nocc = 36  HOMO = -0.879812030011515  LUMO = -0.500285741603027
cycle= 11 E= -3426.59584940516  delta_E= -0.203  |g|= 0.516  |ddm|= 0.53
  alpha nocc = 36  HOMO = -0.969190324507481  LUMO = -0.464706463020477
  beta  nocc = 36  HOMO = -0.969190324507478  LUMO = -0.464706463020474
cycle= 12 E= -3426.64592109502  delta_E= -0.0501  |g|= 0.0759  |ddm|= 0.183
  alpha nocc = 36  HOMO = -0.968896941010727  LUMO = -0.46993619192615
  beta  nocc = 36  HOMO = -0.968896941010719  LUMO = -0.469936191926146
cycle= 13 E= -3426.65701305518  delta_E= -0.0111  |g|= 0.0578  |ddm|= 0.132
  alpha nocc = 36  HOMO = -0.967299642278609  LUMO = -0.466131873115474
  beta  nocc = 36  HOMO = -0.967299642278608  LUMO = -0.466131873115472
cycle= 14 E= -3426.66420188877  delta_E= -0.00719  |g|= 0.0225  |ddm|= 0.145
  alpha nocc = 36  HOMO = -0.96296058289276  LUMO = -0.47154949701954
  beta  nocc = 36  HOMO = -0.96296058289276  LUMO = -0.47154949701954
cycle= 15 E= -3426.66637445506  delta_E= -0.00217  |g|= 0.0185  |ddm|= 0.0925
  alpha nocc = 36  HOMO = -0.958795305712741  LUMO = -0.472547281334787
  beta  nocc = 36  HOMO = -0.958795305712727  LUMO = -0.472547281334791
cycle= 16 E= -3426.66691857408  delta_E= -0.000544  |g|= 0.00671  |ddm|= 0.0425
  alpha nocc = 36  HOMO = -0.956626794999062  LUMO = -0.472569598195115
  beta  nocc = 36  HOMO = -0.95662679499906  LUMO = -0.472569598195112
cycle= 17 E= -3426.66707186017  delta_E= -0.000153  |g|= 0.00281  |ddm|= 0.0303
  alpha nocc = 36  HOMO = -0.955642912789562  LUMO = -0.472748887615487
  beta  nocc = 36  HOMO = -0.955642912789558  LUMO = -0.472748887615485
cycle= 18 E= -3426.66708736482  delta_E= -1.55e-05  |g|= 0.00116  |ddm|= 0.00682
  alpha nocc = 36  HOMO = -0.95534892297194  LUMO = -0.472572186046645
  beta  nocc = 36  HOMO = -0.955348922971932  LUMO = -0.472572186046639
cycle= 19 E= -3426.66709053205  delta_E= -3.17e-06  |g|= 0.000531  |ddm|= 0.00299
  alpha nocc = 36  HOMO = -0.95534897313072  LUMO = -0.472549569116124
  beta  nocc = 36  HOMO = -0.955348973130714  LUMO = -0.472549569116126
cycle= 20 E= -3426.6670912812  delta_E= -7.49e-07  |g|= 0.000274  |ddm|= 0.00141
  alpha nocc = 36  HOMO = -0.955390759555581  LUMO = -0.472559313402218
  beta  nocc = 36  HOMO = -0.955390759555557  LUMO = -0.472559313402222
cycle= 21 E= -3426.66709149514  delta_E= -2.14e-07  |g|= 0.000154  |ddm|= 0.000723
  alpha nocc = 36  HOMO = -0.955373680717321  LUMO = -0.472537698687566
  beta  nocc = 36  HOMO = -0.955373680717303  LUMO = -0.472537698687568
cycle= 22 E= -3426.66709157313  delta_E= -7.8e-08  |g|= 0.000115  |ddm|= 0.000469
  alpha nocc = 36  HOMO = -0.955402389823525  LUMO = -0.472551211023578
  beta  nocc = 36  HOMO = -0.955402389823497  LUMO = -0.472551211023581
cycle= 23 E= -3426.66709160654  delta_E= -3.34e-08  |g|= 4.08e-05  |ddm|= 0.000413
  alpha nocc = 36  HOMO = -0.955398910141405  LUMO = -0.472545395462633
  beta  nocc = 36  HOMO = -0.955398910141368  LUMO = -0.472545395462634
cycle= 24 E= -3426.66709161079  delta_E= -4.24e-09  |g|= 3.3e-05  |ddm|= 0.000181
  alpha nocc = 36  HOMO = -0.955400207864136  LUMO = -0.472547059659164
  beta  nocc = 36  HOMO = -0.955400207864094  LUMO = -0.472547059659166
cycle= 25 E= -3426.66709161121  delta_E= -4.27e-10  |g|= 2e-05  |ddm|= 4.07e-05
  alpha nocc = 36  HOMO = -0.955400668974112  LUMO = -0.472548633664571
  beta  nocc = 36  HOMO = -0.955400668974072  LUMO = -0.472548633664568
Extra cycle  E= -3426.66709161129  delta_E= -7.37e-11  |g|= 2.83e-05  |ddm|= 1.58e-05
converged SCF energy = -3426.66709161129  <S^2> = 1.863551  2S+1 = 2.9076114
**** checking UHF/UKS internal stability ...
tol 0.0001  toloose 0.01
max_cycle 50  max_space 12  max_memory 2000  incore True
davidson 0 1  |r|= 4.19  e= [2.7228564]  max|de|= 2.72  lindep= 0.981
davidson 1 2  |r|= 0.825  e= [2.19284962]  max|de|= -0.53  lindep=    1
davidson 2 3  |r|= 0.248  e= [1.80547262]  max|de|= -0.387  lindep=    1
davidson 3 4  |r|= 0.308  e= [1.39104551]  max|de|= -0.414  lindep=    1
davidson 4 5  |r|= 0.435  e= [0.90598718]  max|de|= -0.485  lindep= 0.998
davidson 5 6  |r|= 1.35  e= [0.52389124]  max|de|= -0.382  lindep= 0.984
davidson 6 7  |r|= 0.497  e= [0.27898999]  max|de|= -0.245  lindep= 0.971
davidson 7 8  |r|= 0.296  e= [0.06873189]  max|de|= -0.21  lindep= 0.991
davidson 8 9  |r|= 0.265  e= [0.02818291]  max|de|= -0.0405  lindep= 0.951
davidson 9 10  |r|= 0.177  e= [0.01525974]  max|de|= -0.0129  lindep= 0.968
davidson 10 11  |r|= 0.11  e= [0.00708588]  max|de|= -0.00817  lindep= 0.928
davidson 11 12  |r|= 0.067  e= [0.00206101]  max|de|= -0.00502  lindep= 0.951
davidson 12 1  |r|= 0.067  e= [0.00206101]  max|de|= -1.48e-15  lindep=    1
davidson 13 2  |r|= 0.0834  e= [-0.00027004]  max|de|= -0.00233  lindep= 0.898
davidson 14 3  |r|= 0.164  e= [-0.00579176]  max|de|= -0.00552  lindep= 0.952
davidson 15 4  |r|= 0.321  e= [-0.02552135]  max|de|= -0.0197  lindep= 0.99
davidson 16 5  |r|= 0.304  e= [-0.07587966]  max|de|= -0.0504  lindep= 0.937
davidson 17 6  |r|= 0.228  e= [-0.12172289]  max|de|= -0.0458  lindep= 0.937
davidson 18 7  |r|= 0.271  e= [-0.15618081]  max|de|= -0.0345  lindep= 0.954
davidson 19 8  |r|= 0.226  e= [-0.17077357]  max|de|= -0.0146  lindep= 0.904
davidson 20 9  |r|= 0.0983  e= [-0.18109158]  max|de|= -0.0103  lindep= 0.959
davidson 21 10  |r|= 0.0492  e= [-0.18407611]  max|de|= -0.00298  lindep= 0.953
davidson 22 11  |r|= 0.0228  e= [-0.18474598]  max|de|= -0.00067  lindep= 0.927
davidson 23 12  |r|= 0.012  e= [-0.18491606]  max|de|= -0.00017  lindep= 0.907
davidson 24 1  |r|= 0.012  e= [-0.18491606]  max|de|= 4.72e-16  lindep=    1
root 0 converged  |r|= 0.00779  e= -0.1849534483536877  max|de|= -3.74e-05
converged 25 2  |r|= 0.00779  e= [-0.18495345]  max|de|= -3.74e-05
UHF/UKS wavefunction has an internal instability.


******** <class 'pyscf.scf.uhf.UHF'> ********
method = UHF
initial guess = minao
damping factor = 0
level_shift factor = 0
DIIS = <class 'pyscf.scf.diis.CDIIS'>
diis_start_cycle = 1
diis_space = 8
SCF conv_tol = 1e-09
SCF conv_tol_grad = None
SCF max_cycles = 100
direct_scf = True
direct_scf_tol = 1e-13
chkfile to save SCF result = /share/home/srwang/pyAutoMR/examples/tmp1kducm8c
max_memory 4000 MB (current use 1288 MB)
number electrons alpha = 36  beta = 36
Set gradient conv threshold to 3.16228e-05
init E= -3426.66098348089
  alpha nocc = 36  HOMO = -0.948377508564908  LUMO = -0.413229890698448
  beta  nocc = 36  HOMO = -0.880749922110201  LUMO = -0.42024322319944
cycle= 1 E= -3426.73500182326  delta_E= -0.074  |g|= 0.342  |ddm|= 0.288
  alpha nocc = 36  HOMO = -0.968120450293273  LUMO = -0.427747971528406
  beta  nocc = 36  HOMO = -0.885664608191944  LUMO = -0.369361865589482
cycle= 2 E= -3426.76487959845  delta_E= -0.0299  |g|= 0.489  |ddm|= 0.285
  alpha nocc = 36  HOMO = -0.950472130927021  LUMO = -0.418641235156715
  beta  nocc = 36  HOMO = -0.899910861018738  LUMO = -0.378762728875355
cycle= 3 E= -3426.8061941015  delta_E= -0.0413  |g|= 0.124  |ddm|= 0.117
  alpha nocc = 36  HOMO = -0.910543381535644  LUMO = -0.407553085377105
  beta  nocc = 36  HOMO = -0.940018748849001  LUMO = -0.388958690927659
cycle= 4 E= -3426.84501735344  delta_E= -0.0388  |g|= 0.0664  |ddm|= 0.258
  alpha nocc = 36  HOMO = -0.913371825687378  LUMO = -0.417592439041083
  beta  nocc = 36  HOMO = -0.949041419029877  LUMO = -0.393120297463494
cycle= 5 E= -3426.85662561039  delta_E= -0.0116  |g|= 0.0495  |ddm|= 0.155
  alpha nocc = 36  HOMO = -0.914324279721157  LUMO = -0.417148725700708
  beta  nocc = 36  HOMO = -0.951635097829977  LUMO = -0.3881994314878
cycle= 6 E= -3426.85883977547  delta_E= -0.00221  |g|= 0.0473  |ddm|= 0.0534
  alpha nocc = 36  HOMO = -0.906014241149239  LUMO = -0.416073917552099
  beta  nocc = 36  HOMO = -0.948832211562353  LUMO = -0.390651059825006
cycle= 7 E= -3426.86288783706  delta_E= -0.00405  |g|= 0.0241  |ddm|= 0.0883
  alpha nocc = 36  HOMO = -0.90814228595214  LUMO = -0.418464867451852
  beta  nocc = 36  HOMO = -0.953131014342188  LUMO = -0.388946434636604
cycle= 8 E= -3426.86549256614  delta_E= -0.0026  |g|= 0.0236  |ddm|= 0.06
  alpha nocc = 36  HOMO = -0.909625183964605  LUMO = -0.416999052307142
  beta  nocc = 36  HOMO = -0.957163775341454  LUMO = -0.386926567778512
cycle= 9 E= -3426.86899158507  delta_E= -0.0035  |g|= 0.0251  |ddm|= 0.0967
  alpha nocc = 36  HOMO = -0.905143656898129  LUMO = -0.412188890301582
  beta  nocc = 36  HOMO = -0.955459904686819  LUMO = -0.387479981314394
cycle= 10 E= -3426.8720478802  delta_E= -0.00306  |g|= 0.0162  |ddm|= 0.103
  alpha nocc = 36  HOMO = -0.90486552411814  LUMO = -0.414849790631193
  beta  nocc = 36  HOMO = -0.95457958732739  LUMO = -0.387575829605808
cycle= 11 E= -3426.87305320797  delta_E= -0.00101  |g|= 0.0143  |ddm|= 0.0427
  alpha nocc = 36  HOMO = -0.907648700440091  LUMO = -0.40793136366652
  beta  nocc = 36  HOMO = -0.955877617957604  LUMO = -0.386506530363422
cycle= 12 E= -3426.87567402913  delta_E= -0.00262  |g|= 0.0148  |ddm|= 0.163
  alpha nocc = 36  HOMO = -0.908458207129593  LUMO = -0.414861212068069
  beta  nocc = 36  HOMO = -0.955332118480254  LUMO = -0.386655875901943
cycle= 13 E= -3426.87592523868  delta_E= -0.000251  |g|= 0.00925  |ddm|= 0.0168
  alpha nocc = 36  HOMO = -0.908970174123188  LUMO = -0.410724100914295
  beta  nocc = 36  HOMO = -0.95501212117445  LUMO = -0.386422490948695
cycle= 14 E= -3426.87658289343  delta_E= -0.000658  |g|= 0.0105  |ddm|= 0.0762
  alpha nocc = 36  HOMO = -0.909153988406975  LUMO = -0.418199954528918
  beta  nocc = 36  HOMO = -0.954557585336617  LUMO = -0.386621977170606
cycle= 15 E= -3426.87681542425  delta_E= -0.000233  |g|= 0.00525  |ddm|= 0.0228
  alpha nocc = 36  HOMO = -0.909401163188662  LUMO = -0.424490646743351
  beta  nocc = 36  HOMO = -0.954028971468202  LUMO = -0.386761216687948
cycle= 16 E= -3426.87715958082  delta_E= -0.000344  |g|= 0.00524  |ddm|= 0.0623
  alpha nocc = 36  HOMO = -0.909279452052313  LUMO = -0.42292359830041
  beta  nocc = 36  HOMO = -0.954322417766036  LUMO = -0.386698390690769
cycle= 17 E= -3426.87719083351  delta_E= -3.13e-05  |g|= 0.00404  |ddm|= 0.00531
  alpha nocc = 36  HOMO = -0.908981796719786  LUMO = -0.424106336879908
  beta  nocc = 36  HOMO = -0.95445481271428  LUMO = -0.386704335313775
cycle= 18 E= -3426.87729127577  delta_E= -0.0001  |g|= 0.00444  |ddm|= 0.0201
  alpha nocc = 36  HOMO = -0.90897406783432  LUMO = -0.421648646508036
  beta  nocc = 36  HOMO = -0.954760677681946  LUMO = -0.386639906606798
cycle= 19 E= -3426.87734762343  delta_E= -5.63e-05  |g|= 0.00284  |ddm|= 0.0105
  alpha nocc = 36  HOMO = -0.90893051879721  LUMO = -0.419993802551466
  beta  nocc = 36  HOMO = -0.954810650078168  LUMO = -0.38658973684128
cycle= 20 E= -3426.87742509792  delta_E= -7.75e-05  |g|= 0.00223  |ddm|= 0.0168
  alpha nocc = 36  HOMO = -0.908986980970675  LUMO = -0.420141271756078
  beta  nocc = 36  HOMO = -0.954726287207081  LUMO = -0.38659541893059
cycle= 21 E= -3426.87745320988  delta_E= -2.81e-05  |g|= 0.00209  |ddm|= 0.00667
  alpha nocc = 36  HOMO = -0.90904203870013  LUMO = -0.419935280542565
  beta  nocc = 36  HOMO = -0.954744460906202  LUMO = -0.386590844313876
cycle= 22 E= -3426.8774564498  delta_E= -3.24e-06  |g|= 0.00208  |ddm|= 0.00195
  alpha nocc = 36  HOMO = -0.909023153912286  LUMO = -0.419911295616165
  beta  nocc = 36  HOMO = -0.954821247331387  LUMO = -0.386585186340392
cycle= 23 E= -3426.87744790271  delta_E= 8.55e-06  |g|= 0.00207  |ddm|= 0.00373
  alpha nocc = 36  HOMO = -0.908907883130314  LUMO = -0.419948894288441
  beta  nocc = 36  HOMO = -0.954779297841327  LUMO = -0.386590921998937
cycle= 24 E= -3426.87743464527  delta_E= 1.33e-05  |g|= 0.00207  |ddm|= 0.00859
  alpha nocc = 36  HOMO = -0.908916680425956  LUMO = -0.419971459634387
  beta  nocc = 36  HOMO = -0.954713393729315  LUMO = -0.386570172540751
cycle= 25 E= -3426.87743105946  delta_E= 3.59e-06  |g|= 0.00184  |ddm|= 0.00712
  alpha nocc = 36  HOMO = -0.909122158727038  LUMO = -0.42010722009842
  beta  nocc = 36  HOMO = -0.954710811953202  LUMO = -0.386593844817584
cycle= 26 E= -3426.87741429127  delta_E= 1.68e-05  |g|= 0.00163  |ddm|= 0.00797
  alpha nocc = 36  HOMO = -0.909113800417966  LUMO = -0.419955899026138
  beta  nocc = 36  HOMO = -0.954443760904244  LUMO = -0.386592122341622
cycle= 27 E= -3426.87742840091  delta_E= -1.41e-05  |g|= 0.000814  |ddm|= 0.0243
  alpha nocc = 36  HOMO = -0.909249733019602  LUMO = -0.419989327221516
  beta  nocc = 36  HOMO = -0.954499065997686  LUMO = -0.386605657532347
cycle= 28 E= -3426.87743020551  delta_E= -1.8e-06  |g|= 0.000345  |ddm|= 0.0128
  alpha nocc = 36  HOMO = -0.909103777478213  LUMO = -0.420073762511047
  beta  nocc = 36  HOMO = -0.954545046758478  LUMO = -0.386599994314128
cycle= 29 E= -3426.87743113573  delta_E= -9.3e-07  |g|= 0.000213  |ddm|= 0.00433
  alpha nocc = 36  HOMO = -0.909098994834094  LUMO = -0.420076350339708
  beta  nocc = 36  HOMO = -0.954572707144667  LUMO = -0.386596132865519
cycle= 30 E= -3426.87743130677  delta_E= -1.71e-07  |g|= 0.000129  |ddm|= 0.00178
  alpha nocc = 36  HOMO = -0.909110848050172  LUMO = -0.420075038315797
  beta  nocc = 36  HOMO = -0.954585804890631  LUMO = -0.386594904521872
cycle= 31 E= -3426.87743138276  delta_E= -7.6e-08  |g|= 0.000104  |ddm|= 0.00078
  alpha nocc = 36  HOMO = -0.909099343373674  LUMO = -0.420071691245105
  beta  nocc = 36  HOMO = -0.954587871308651  LUMO = -0.386594068165234
cycle= 32 E= -3426.8774314163  delta_E= -3.35e-08  |g|= 9.8e-05  |ddm|= 0.000298
  alpha nocc = 36  HOMO = -0.909095331761338  LUMO = -0.420070353808547
  beta  nocc = 36  HOMO = -0.954589490656804  LUMO = -0.386593934110501
cycle= 33 E= -3426.87743144572  delta_E= -2.94e-08  |g|= 9.48e-05  |ddm|= 0.000214
  alpha nocc = 36  HOMO = -0.90909213371548  LUMO = -0.420070211827982
  beta  nocc = 36  HOMO = -0.954592759961283  LUMO = -0.386593661294367
cycle= 34 E= -3426.87743148066  delta_E= -3.49e-08  |g|= 9.2e-05  |ddm|= 0.000214
  alpha nocc = 36  HOMO = -0.909092021825272  LUMO = -0.420070386226112
  beta  nocc = 36  HOMO = -0.95459291832442  LUMO = -0.386593684547827
cycle= 35 E= -3426.87743149399  delta_E= -1.33e-08  |g|= 9.16e-05  |ddm|= 6.95e-05
  alpha nocc = 36  HOMO = -0.909092261752602  LUMO = -0.420070499693017
  beta  nocc = 36  HOMO = -0.954592931069139  LUMO = -0.386593800775575
cycle= 36 E= -3426.87743147565  delta_E= 1.83e-08  |g|= 9.22e-05  |ddm|= 9.29e-05
  alpha nocc = 36  HOMO = -0.909090376908428  LUMO = -0.420069590683384
  beta  nocc = 36  HOMO = -0.954592243067078  LUMO = -0.38659366385002
cycle= 37 E= -3426.87743142917  delta_E= 4.65e-08  |g|= 9.31e-05  |ddm|= 0.000244
  alpha nocc = 36  HOMO = -0.909091057207837  LUMO = -0.420070534202314
  beta  nocc = 36  HOMO = -0.954594572632192  LUMO = -0.38659363350922
cycle= 38 E= -3426.87743136814  delta_E= 6.1e-08  |g|= 9.38e-05  |ddm|= 0.000334
  alpha nocc = 36  HOMO = -0.909089721194422  LUMO = -0.420069710683496
  beta  nocc = 36  HOMO = -0.954594373057821  LUMO = -0.386593055893336
cycle= 39 E= -3426.87743130583  delta_E= 6.23e-08  |g|= 9.23e-05  |ddm|= 0.000466
  alpha nocc = 36  HOMO = -0.909092606199978  LUMO = -0.420070314428288
  beta  nocc = 36  HOMO = -0.95459522839953  LUMO = -0.386592806260971
cycle= 40 E= -3426.87743125611  delta_E= 4.97e-08  |g|= 8.91e-05  |ddm|= 0.00054
  alpha nocc = 36  HOMO = -0.909096835372295  LUMO = -0.420071584394797
  beta  nocc = 36  HOMO = -0.954595000791578  LUMO = -0.38659295458096
cycle= 41 E= -3426.87743121768  delta_E= 3.84e-08  |g|= 8.41e-05  |ddm|= 0.000638
  alpha nocc = 36  HOMO = -0.909092408916808  LUMO = -0.420068865425446
  beta  nocc = 36  HOMO = -0.954587636858027  LUMO = -0.38659364048592
cycle= 42 E= -3426.87743119176  delta_E= 2.59e-08  |g|= 7.94e-05  |ddm|= 0.000659
  alpha nocc = 36  HOMO = -0.909093235556932  LUMO = -0.420069742038057
  beta  nocc = 36  HOMO = -0.954587675233475  LUMO = -0.386594261396932
cycle= 43 E= -3426.87743118913  delta_E= 2.63e-09  |g|= 7.37e-05  |ddm|= 0.000408
  alpha nocc = 36  HOMO = -0.909093858972354  LUMO = -0.420070819581547
  beta  nocc = 36  HOMO = -0.954590551545703  LUMO = -0.386594257565646
cycle= 44 E= -3426.87743119576  delta_E= -6.63e-09  |g|= 6.82e-05  |ddm|= 0.000342
  alpha nocc = 36  HOMO = -0.909089695600294  LUMO = -0.420069946232744
  beta  nocc = 36  HOMO = -0.954592832249049  LUMO = -0.386594296635909
cycle= 45 E= -3426.87743121791  delta_E= -2.22e-08  |g|= 5.99e-05  |ddm|= 0.000562
  alpha nocc = 36  HOMO = -0.909088047891516  LUMO = -0.420068245795971
  beta  nocc = 36  HOMO = -0.954592435825445  LUMO = -0.386593304111393
cycle= 46 E= -3426.87743122861  delta_E= -1.07e-08  |g|= 5.23e-05  |ddm|= 0.000355
  alpha nocc = 36  HOMO = -0.909090998010511  LUMO = -0.420070344748651
  beta  nocc = 36  HOMO = -0.954596578085042  LUMO = -0.386593315930699
cycle= 47 E= -3426.87743123985  delta_E= -1.12e-08  |g|= 4.69e-05  |ddm|= 0.000267
  alpha nocc = 36  HOMO = -0.909090791968149  LUMO = -0.420070078826563
  beta  nocc = 36  HOMO = -0.954595084127108  LUMO = -0.386593311093779
cycle= 48 E= -3426.87743124636  delta_E= -6.51e-09  |g|= 4.63e-05  |ddm|= 7.89e-05
  alpha nocc = 36  HOMO = -0.909090074221378  LUMO = -0.420069687016091
  beta  nocc = 36  HOMO = -0.95459551411884  LUMO = -0.386593152180173
cycle= 49 E= -3426.87743123608  delta_E= 1.03e-08  |g|= 4.64e-05  |ddm|= 0.000105
  alpha nocc = 36  HOMO = -0.909090021199334  LUMO = -0.420069690707478
  beta  nocc = 36  HOMO = -0.954596432778664  LUMO = -0.38659290102449
cycle= 50 E= -3426.87743121302  delta_E= 2.31e-08  |g|= 4.62e-05  |ddm|= 0.000269
  alpha nocc = 36  HOMO = -0.909091825604516  LUMO = -0.420070669415049
  beta  nocc = 36  HOMO = -0.954597376685679  LUMO = -0.386592805613266
cycle= 51 E= -3426.8774311858  delta_E= 2.72e-08  |g|= 4.56e-05  |ddm|= 0.000392
  alpha nocc = 36  HOMO = -0.909090647640542  LUMO = -0.420069956095899
  beta  nocc = 36  HOMO = -0.954593434527515  LUMO = -0.386593115373896
cycle= 52 E= -3426.87743116604  delta_E= 1.98e-08  |g|= 4.52e-05  |ddm|= 0.000395
  alpha nocc = 36  HOMO = -0.909091202739413  LUMO = -0.420070268372871
  beta  nocc = 36  HOMO = -0.954591946963115  LUMO = -0.386593549697369
cycle= 53 E= -3426.87743115868  delta_E= 7.36e-09  |g|= 4.34e-05  |ddm|= 0.000269
  alpha nocc = 36  HOMO = -0.909092771449654  LUMO = -0.420070873608928
  beta  nocc = 36  HOMO = -0.954592332920892  LUMO = -0.386593679274131
cycle= 54 E= -3426.87743115613  delta_E= 2.55e-09  |g|= 4.16e-05  |ddm|= 0.000207
  alpha nocc = 36  HOMO = -0.909092689021048  LUMO = -0.420070673292528
  beta  nocc = 36  HOMO = -0.954592280590751  LUMO = -0.386594051385525
cycle= 55 E= -3426.87743115828  delta_E= -2.15e-09  |g|= 4e-05  |ddm|= 0.000186
  alpha nocc = 36  HOMO = -0.909091318683154  LUMO = -0.42006919402405
  beta  nocc = 36  HOMO = -0.954590928843158  LUMO = -0.386593700915949
cycle= 56 E= -3426.87743116346  delta_E= -5.18e-09  |g|= 3.57e-05  |ddm|= 0.000241
  alpha nocc = 36  HOMO = -0.909093541818343  LUMO = -0.420070277059619
  beta  nocc = 36  HOMO = -0.954595119901209  LUMO = -0.386593476015856
cycle= 57 E= -3426.87743117415  delta_E= -1.07e-08  |g|= 2.96e-05  |ddm|= 0.000358
  alpha nocc = 36  HOMO = -0.909091633659982  LUMO = -0.420069633910361
  beta  nocc = 36  HOMO = -0.954594366539649  LUMO = -0.386593117201518
cycle= 58 E= -3426.87743118483  delta_E= -1.07e-08  |g|= 2.48e-05  |ddm|= 0.000316
  alpha nocc = 36  HOMO = -0.90909164524211  LUMO = -0.420070154421753
  beta  nocc = 36  HOMO = -0.954594515862912  LUMO = -0.386593148556661
cycle= 59 E= -3426.87743119037  delta_E= -5.53e-09  |g|= 2.3e-05  |ddm|= 0.000144
  alpha nocc = 36  HOMO = -0.909091759737115  LUMO = -0.420070375474943
  beta  nocc = 36  HOMO = -0.954594469102643  LUMO = -0.386593216261626
cycle= 60 E= -3426.87743119238  delta_E= -2.02e-09  |g|= 2.25e-05  |ddm|= 4.56e-05
  alpha nocc = 36  HOMO = -0.90909182132831  LUMO = -0.420070408570075
  beta  nocc = 36  HOMO = -0.954594613588183  LUMO = -0.386593194064187
cycle= 61 E= -3426.87743119198  delta_E= 4.03e-10  |g|= 2.26e-05  |ddm|= 9.71e-06
  alpha nocc = 36  HOMO = -0.909091769486286  LUMO = -0.420070361254487
  beta  nocc = 36  HOMO = -0.954594058985322  LUMO = -0.386593314493101
Extra cycle  E= -3426.87743119312  delta_E= -1.14e-09  |g|= 2.27e-05  |ddm|= 2.36e-05
converged SCF energy = -3426.87743119312  <S^2> = 1.9502209  2S+1 = 2.9666283
**** checking UHF/UKS internal stability ...
tol 0.0001  toloose 0.01
max_cycle 50  max_space 12  max_memory 2000  incore True
davidson 0 1  |r|= 4.38  e= [3.00160412]  max|de|=    3  lindep= 0.999
davidson 1 2  |r|= 0.416  e= [2.5331992]  max|de|= -0.468  lindep= 0.998
davidson 2 3  |r|= 0.426  e= [2.00911876]  max|de|= -0.524  lindep= 0.999
davidson 3 4  |r|= 0.269  e= [1.60926734]  max|de|= -0.4  lindep= 0.998
davidson 4 5  |r|= 0.307  e= [1.15172433]  max|de|= -0.458  lindep= 0.999
davidson 5 6  |r|= 0.737  e= [0.89138427]  max|de|= -0.26  lindep= 0.926
davidson 6 7  |r|=  0.7  e= [0.61601351]  max|de|= -0.275  lindep= 0.926
davidson 7 8  |r|= 0.721  e= [0.1283144]  max|de|= -0.488  lindep= 0.949
davidson 8 9  |r|= 0.419  e= [0.01776924]  max|de|= -0.111  lindep= 0.924
davidson 9 10  |r|= 0.102  e= [-0.01532488]  max|de|= -0.0331  lindep= 0.973
davidson 10 11  |r|= 0.0756  e= [-0.02114512]  max|de|= -0.00582  lindep= 0.946
davidson 11 12  |r|= 0.147  e= [-0.02747319]  max|de|= -0.00633  lindep= 0.901
davidson 12 1  |r|= 0.147  e= [-0.02747319]  max|de|= -4.02e-16  lindep= 0.993
davidson 13 2  |r|= 0.084  e= [-0.03112755]  max|de|= -0.00365  lindep= 0.879
davidson 14 3  |r|= 0.0967  e= [-0.033255]  max|de|= -0.00213  lindep= 0.921
davidson 15 4  |r|= 0.101  e= [-0.03706503]  max|de|= -0.00381  lindep= 0.879
davidson 16 5  |r|= 0.127  e= [-0.04747618]  max|de|= -0.0104  lindep= 0.959
davidson 17 6  |r|= 0.0894  e= [-0.05433874]  max|de|= -0.00686  lindep= 0.968
davidson 18 7  |r|= 0.0473  e= [-0.05618466]  max|de|= -0.00185  lindep= 0.976
davidson 19 8  |r|= 0.0612  e= [-0.0574849]  max|de|= -0.0013  lindep= 0.945
davidson 20 9  |r|= 0.0669  e= [-0.05925989]  max|de|= -0.00177  lindep= 0.856
davidson 21 10  |r|= 0.0291  e= [-0.06024972]  max|de|= -0.00099  lindep= 0.906
davidson 22 11  |r|= 0.0163  e= [-0.06040663]  max|de|= -0.000157  lindep= 0.924
davidson 23 12  |r|= 0.0119  e= [-0.06044611]  max|de|= -3.95e-05  lindep= 0.921
davidson 24 1  |r|= 0.0119  e= [-0.06044611]  max|de|= -9.85e-16  lindep=    1
root 0 converged  |r|= 0.0075  e= -0.06046454255918829  max|de|= -1.84e-05
converged 25 2  |r|= 0.0075  e= [-0.06046454]  max|de|= -1.84e-05
UHF/UKS wavefunction has an internal instability.


******** <class 'pyscf.scf.uhf.UHF'> ********
method = UHF
initial guess = minao
damping factor = 0
level_shift factor = 0
DIIS = <class 'pyscf.scf.diis.CDIIS'>
diis_start_cycle = 1
diis_space = 8
SCF conv_tol = 1e-09
SCF conv_tol_grad = None
SCF max_cycles = 100
direct_scf = True
direct_scf_tol = 1e-13
chkfile to save SCF result = /share/home/srwang/pyAutoMR/examples/tmp1kducm8c
max_memory 4000 MB (current use 1290 MB)
number electrons alpha = 36  beta = 36
Set gradient conv threshold to 3.16228e-05
init E= -3426.88583443844
  alpha nocc = 36  HOMO = -0.916078647387823  LUMO = -0.396649446886662
  beta  nocc = 36  HOMO = -0.965809461684313  LUMO = -0.387018485069359
cycle= 1 E= -3426.8936988157  delta_E= -0.00786  |g|= 0.0396  |ddm|= 0.0736
  alpha nocc = 36  HOMO = -0.913686729353836  LUMO = -0.397191310273675
  beta  nocc = 36  HOMO = -0.970903192062497  LUMO = -0.387313665551395
cycle= 2 E= -3426.89445880122  delta_E= -0.00076  |g|= 0.0225  |ddm|= 0.0266
  alpha nocc = 36  HOMO = -0.913219824086288  LUMO = -0.39683811416616
  beta  nocc = 36  HOMO = -0.973614767418202  LUMO = -0.386846044248972
cycle= 3 E= -3426.89468779329  delta_E= -0.000229  |g|= 0.024  |ddm|= 0.0166
  alpha nocc = 36  HOMO = -0.912329621518713  LUMO = -0.397152850900131
  beta  nocc = 36  HOMO = -0.973567978105382  LUMO = -0.387239059203493
cycle= 4 E= -3426.89489222095  delta_E= -0.000204  |g|= 0.00743  |ddm|= 0.0101
  alpha nocc = 36  HOMO = -0.910937023384341  LUMO = -0.396944002068726
  beta  nocc = 36  HOMO = -0.973078548933119  LUMO = -0.387223305924653
cycle= 5 E= -3426.89512483713  delta_E= -0.000233  |g|= 0.00658  |ddm|= 0.0145
  alpha nocc = 36  HOMO = -0.909582505117401  LUMO = -0.396681100813002
  beta  nocc = 36  HOMO = -0.972720091084783  LUMO = -0.387325982713858
cycle= 6 E= -3426.8955004293  delta_E= -0.000376  |g|= 0.00568  |ddm|= 0.0262
  alpha nocc = 36  HOMO = -0.906040159525568  LUMO = -0.395530803220854
  beta  nocc = 36  HOMO = -0.968229781349143  LUMO = -0.387429803192107
cycle= 7 E= -3426.89622733476  delta_E= -0.000727  |g|= 0.00327  |ddm|= 0.0761
  alpha nocc = 36  HOMO = -0.903480933616665  LUMO = -0.395383667038722
  beta  nocc = 36  HOMO = -0.967372381834967  LUMO = -0.387473020590956
cycle= 8 E= -3426.89634175903  delta_E= -0.000114  |g|= 0.00215  |ddm|= 0.0233
  alpha nocc = 36  HOMO = -0.901042255004943  LUMO = -0.395128785433576
  beta  nocc = 36  HOMO = -0.965558783004748  LUMO = -0.387592093967707
cycle= 9 E= -3426.89641886496  delta_E= -7.71e-05  |g|= 0.00086  |ddm|= 0.0353
  alpha nocc = 36  HOMO = -0.899651908922615  LUMO = -0.395108246948737
  beta  nocc = 36  HOMO = -0.965378152015943  LUMO = -0.387597086552334
cycle= 10 E= -3426.89642138174  delta_E= -2.52e-06  |g|= 0.000629  |ddm|= 0.00438
  alpha nocc = 36  HOMO = -0.900330975360097  LUMO = -0.395079141992931
  beta  nocc = 36  HOMO = -0.965364139651232  LUMO = -0.387595442346845
cycle= 11 E= -3426.8964218001  delta_E= -4.18e-07  |g|= 0.000455  |ddm|= 0.000866
  alpha nocc = 36  HOMO = -0.90000997945446  LUMO = -0.395084963138929
  beta  nocc = 36  HOMO = -0.965382418544173  LUMO = -0.387598232327843
cycle= 12 E= -3426.89642273458  delta_E= -9.34e-07  |g|= 0.000374  |ddm|= 0.00131
  alpha nocc = 36  HOMO = -0.900180483286517  LUMO = -0.395069597490647
  beta  nocc = 36  HOMO = -0.965373010506501  LUMO = -0.387592530875985
cycle= 13 E= -3426.89642341912  delta_E= -6.85e-07  |g|= 0.00032  |ddm|= 0.00115
  alpha nocc = 36  HOMO = -0.900194750417986  LUMO = -0.395069123773965
  beta  nocc = 36  HOMO = -0.965351978371949  LUMO = -0.387598129158235
cycle= 14 E= -3426.89642397884  delta_E= -5.6e-07  |g|= 0.000199  |ddm|= 0.00144
  alpha nocc = 36  HOMO = -0.900122691402933  LUMO = -0.395064928579245
  beta  nocc = 36  HOMO = -0.965306384268799  LUMO = -0.387599779092595
cycle= 15 E= -3426.89642419512  delta_E= -2.16e-07  |g|= 0.000124  |ddm|= 0.00115
  alpha nocc = 36  HOMO = -0.900133622015059  LUMO = -0.395068552332282
  beta  nocc = 36  HOMO = -0.965318143724235  LUMO = -0.387600336108519
cycle= 16 E= -3426.89642424082  delta_E= -4.57e-08  |g|= 0.000103  |ddm|= 0.000292
  alpha nocc = 36  HOMO = -0.900134154867699  LUMO = -0.395068882101432
  beta  nocc = 36  HOMO = -0.965326010007114  LUMO = -0.387599314060436
cycle= 17 E= -3426.89642428081  delta_E= -4e-08  |g|= 9.14e-05  |ddm|= 0.000257
  alpha nocc = 36  HOMO = -0.900127724314609  LUMO = -0.395070154550914
  beta  nocc = 36  HOMO = -0.965334641804495  LUMO = -0.387599204256327
cycle= 18 E= -3426.89642431459  delta_E= -3.38e-08  |g|= 8.64e-05  |ddm|= 0.000204
  alpha nocc = 36  HOMO = -0.90012466232377  LUMO = -0.395070046081971
  beta  nocc = 36  HOMO = -0.965342431087502  LUMO = -0.387598629192013
cycle= 19 E= -3426.89642434733  delta_E= -3.27e-08  |g|= 7.8e-05  |ddm|= 0.000212
  alpha nocc = 36  HOMO = -0.900124256687535  LUMO = -0.395069912238925
  beta  nocc = 36  HOMO = -0.965355638144431  LUMO = -0.387598625579575
cycle= 20 E= -3426.89642441912  delta_E= -7.18e-08  |g|= 6.05e-05  |ddm|= 0.000552
  alpha nocc = 36  HOMO = -0.900127046154054  LUMO = -0.395068804512528
  beta  nocc = 36  HOMO = -0.965355124946931  LUMO = -0.387598916700433
cycle= 21 E= -3426.89642448885  delta_E= -6.97e-08  |g|= 4.18e-05  |ddm|= 0.00076
  alpha nocc = 36  HOMO = -0.900138758402913  LUMO = -0.395068968887079
  beta  nocc = 36  HOMO = -0.965362404878998  LUMO = -0.387599057647077
cycle= 22 E= -3426.89642451064  delta_E= -2.18e-08  |g|= 3.74e-05  |ddm|= 0.00035
  alpha nocc = 36  HOMO = -0.900140192437164  LUMO = -0.395069067999661
  beta  nocc = 36  HOMO = -0.965360718377135  LUMO = -0.387599401530647
cycle= 23 E= -3426.89642451769  delta_E= -7.05e-09  |g|= 3.41e-05  |ddm|= 0.000129
  alpha nocc = 36  HOMO = -0.900140718113584  LUMO = -0.395068953743369
  beta  nocc = 36  HOMO = -0.965359924613164  LUMO = -0.387599247999521
cycle= 24 E= -3426.89642452129  delta_E= -3.61e-09  |g|= 3.29e-05  |ddm|= 5.29e-05
  alpha nocc = 36  HOMO = -0.900141366015533  LUMO = -0.395069033882203
  beta  nocc = 36  HOMO = -0.96536024173745  LUMO = -0.387599253139456
cycle= 25 E= -3426.89642452458  delta_E= -3.29e-09  |g|= 3.28e-05  |ddm|= 4.38e-05
  alpha nocc = 36  HOMO = -0.900141252978175  LUMO = -0.395069011045687
  beta  nocc = 36  HOMO = -0.965360016323792  LUMO = -0.387599270441867
cycle= 26 E= -3426.89642452335  delta_E= 1.23e-09  |g|= 3.29e-05  |ddm|= 1.64e-05
  alpha nocc = 36  HOMO = -0.900141166639603  LUMO = -0.395068979960312
  beta  nocc = 36  HOMO = -0.965359837983811  LUMO = -0.387599279800356
cycle= 27 E= -3426.89642452125  delta_E= 2.1e-09  |g|= 3.28e-05  |ddm|= 2.81e-05
  alpha nocc = 36  HOMO = -0.900140674037268  LUMO = -0.395068914263451
  beta  nocc = 36  HOMO = -0.965359246807109  LUMO = -0.38759931384219
cycle= 28 E= -3426.89642451653  delta_E= 4.72e-09  |g|= 3.29e-05  |ddm|= 6.37e-05
  alpha nocc = 36  HOMO = -0.900139681801255  LUMO = -0.395068804827125
  beta  nocc = 36  HOMO = -0.965358639752101  LUMO = -0.387599287646746
cycle= 29 E= -3426.89642451145  delta_E= 5.07e-09  |g|= 3.28e-05  |ddm|= 6.93e-05
  alpha nocc = 36  HOMO = -0.900136988635395  LUMO = -0.395068647364591
  beta  nocc = 36  HOMO = -0.965358223762627  LUMO = -0.387599344611528
cycle= 30 E= -3426.89642449934  delta_E= 1.21e-08  |g|= 3.25e-05  |ddm|= 0.000172
  alpha nocc = 36  HOMO = -0.900131936792212  LUMO = -0.395068218497604
  beta  nocc = 36  HOMO = -0.965354756673083  LUMO = -0.387599461558903
cycle= 31 E= -3426.89642448428  delta_E= 1.51e-08  |g|= 3.22e-05  |ddm|= 0.000218
  alpha nocc = 36  HOMO = -0.900130277891754  LUMO = -0.395067841441354
  beta  nocc = 36  HOMO = -0.965353831692792  LUMO = -0.387599481735948
cycle= 32 E= -3426.89642447281  delta_E= 1.15e-08  |g|= 3.21e-05  |ddm|= 0.000172
  alpha nocc = 36  HOMO = -0.900128799247986  LUMO = -0.39506761959345
  beta  nocc = 36  HOMO = -0.965351943396472  LUMO = -0.387599779359461
cycle= 33 E= -3426.89642445859  delta_E= 1.42e-08  |g|= 3.13e-05  |ddm|= 0.000215
  alpha nocc = 36  HOMO = -0.900127665452212  LUMO = -0.395067101950246
  beta  nocc = 36  HOMO = -0.965348995364611  LUMO = -0.387599807677819
cycle= 34 E= -3426.89642444394  delta_E= 1.47e-08  |g|= 3.07e-05  |ddm|= 0.000231
  alpha nocc = 36  HOMO = -0.900129079637174  LUMO = -0.395066984993722
  beta  nocc = 36  HOMO = -0.965347979341268  LUMO = -0.387599940538024
cycle= 35 E= -3426.89642442728  delta_E= 1.67e-08  |g|= 2.99e-05  |ddm|= 0.000285
  alpha nocc = 36  HOMO = -0.900131668846092  LUMO = -0.39506684201452
  beta  nocc = 36  HOMO = -0.965348402023982  LUMO = -0.387599906053809
cycle= 36 E= -3426.89642439682  delta_E= 3.05e-08  |g|= 2.86e-05  |ddm|= 0.000545
  alpha nocc = 36  HOMO = -0.900132601939438  LUMO = -0.395067144970857
  beta  nocc = 36  HOMO = -0.965349436010677  LUMO = -0.38759991344002
cycle= 37 E= -3426.89642436335  delta_E= 3.35e-08  |g|= 2.81e-05  |ddm|= 0.000699
  alpha nocc = 36  HOMO = -0.900133012255176  LUMO = -0.395067280619434
  beta  nocc = 36  HOMO = -0.965351465775577  LUMO = -0.38759965328484
cycle= 38 E= -3426.8964243334  delta_E= 3e-08  |g|= 2.6e-05  |ddm|= 0.000723
  alpha nocc = 36  HOMO = -0.900135414417784  LUMO = -0.395068053262147
  beta  nocc = 36  HOMO = -0.965357823885212  LUMO = -0.387599575391304
cycle= 39 E= -3426.8964242921  delta_E= 4.13e-08  |g|= 2.12e-05  |ddm|= 0.00133
  alpha nocc = 36  HOMO = -0.900132285564708  LUMO = -0.395068324008722
  beta  nocc = 36  HOMO = -0.965359064740793  LUMO = -0.38759944362075
cycle= 40 E= -3426.89642427773  delta_E= 1.44e-08  |g|= 1.92e-05  |ddm|= 0.000735
  alpha nocc = 36  HOMO = -0.900135063413804  LUMO = -0.39506843318099
  beta  nocc = 36  HOMO = -0.965362321561149  LUMO = -0.387599309161214
cycle= 41 E= -3426.89642427278  delta_E= 4.95e-09  |g|= 1.86e-05  |ddm|= 0.000375
  alpha nocc = 36  HOMO = -0.900137177567365  LUMO = -0.39506878933908
  beta  nocc = 36  HOMO = -0.965364079268491  LUMO = -0.387599467508298
cycle= 42 E= -3426.89642426955  delta_E= 3.23e-09  |g|= 1.64e-05  |ddm|= 0.000353
  alpha nocc = 36  HOMO = -0.900139237910633  LUMO = -0.395068773440879
  beta  nocc = 36  HOMO = -0.965364375718789  LUMO = -0.38759926718077
cycle= 43 E= -3426.896424268  delta_E= 1.55e-09  |g|= 1.38e-05  |ddm|= 0.000334
  alpha nocc = 36  HOMO = -0.900142599614545  LUMO = -0.39506912312974
  beta  nocc = 36  HOMO = -0.965365279975572  LUMO = -0.387599292338225
cycle= 44 E= -3426.89642426768  delta_E= 3.22e-10  |g|= 1.12e-05  |ddm|= 0.000304
  alpha nocc = 36  HOMO = -0.900142757123833  LUMO = -0.395069161170351
  beta  nocc = 36  HOMO = -0.965365684267496  LUMO = -0.387599216138245
Extra cycle  E= -3426.89642426788  delta_E= -2.01e-10  |g|= 1.05e-05  |ddm|= 1.03e-05
converged SCF energy = -3426.89642426788  <S^2> = 1.9792075  2S+1 = 2.9861062
**** checking UHF/UKS internal stability ...
tol 0.0001  toloose 0.01
max_cycle 50  max_space 12  max_memory 2000  incore True
davidson 0 1  |r|= 4.37  e= [3.0205908]  max|de|= 3.02  lindep=    1
davidson 1 2  |r|= 0.318  e= [2.5088111]  max|de|= -0.512  lindep=    1
davidson 2 3  |r|= 0.275  e= [2.08809082]  max|de|= -0.421  lindep=    1
davidson 3 4  |r|= 0.452  e= [1.55776879]  max|de|= -0.53  lindep= 0.999
davidson 4 5  |r|= 0.387  e= [1.06381708]  max|de|= -0.494  lindep= 0.997
davidson 5 6  |r|= 0.429  e= [0.48818716]  max|de|= -0.576  lindep= 0.964
davidson 6 7  |r|=  0.5  e= [0.16385208]  max|de|= -0.324  lindep= 0.985
davidson 7 8  |r|= 0.304  e= [0.09615506]  max|de|= -0.0677  lindep= 0.958
davidson 8 9  |r|= 0.17  e= [0.07064006]  max|de|= -0.0255  lindep= 0.955
davidson 9 10  |r|= 0.0659  e= [0.06580485]  max|de|= -0.00484  lindep= 0.951
davidson 10 11  |r|= 0.0396  e= [0.06401989]  max|de|= -0.00178  lindep= 0.962
davidson 11 12  |r|= 0.0465  e= [0.06315654]  max|de|= -0.000863  lindep=  0.9
davidson 12 1  |r|= 0.0465  e= [0.06315654]  max|de|= 6.94e-17  lindep= 0.998
davidson 13 2  |r|= 0.0364  e= [0.06251211]  max|de|= -0.000644  lindep= 0.914
davidson 14 3  |r|= 0.0773  e= [0.06076516]  max|de|= -0.00175  lindep= 0.977
davidson 15 4  |r|= 0.27  e= [0.04911971]  max|de|= -0.0116  lindep= 0.926
davidson 16 5  |r|= 0.207  e= [0.02482141]  max|de|= -0.0243  lindep= 0.938
davidson 17 6  |r|= 0.135  e= [0.01567853]  max|de|= -0.00914  lindep= 0.875
davidson 18 7  |r|= 0.0784  e= [0.00790435]  max|de|= -0.00777  lindep= 0.953
davidson 19 8  |r|=  0.1  e= [0.00016015]  max|de|= -0.00774  lindep= 0.99
davidson 20 9  |r|= 0.0569  e= [-0.00324545]  max|de|= -0.00341  lindep= 0.947
davidson 21 10  |r|= 0.0313  e= [-0.00470437]  max|de|= -0.00146  lindep= 0.987
davidson 22 11  |r|= 0.0354  e= [-0.00511606]  max|de|= -0.000412  lindep= 0.825
davidson 23 12  |r|= 0.0341  e= [-0.00543054]  max|de|= -0.000314  lindep= 0.943
davidson 24 1  |r|= 0.0341  e= [-0.00543054]  max|de|= 2.33e-16  lindep=    1
davidson 25 2  |r|= 0.018  e= [-0.00558049]  max|de|= -0.00015  lindep= 0.887
davidson 26 3  |r|= 0.0179  e= [-0.00577817]  max|de|= -0.000198  lindep= 0.976
davidson 27 4  |r|= 0.0202  e= [-0.00595302]  max|de|= -0.000175  lindep= 0.955
davidson 28 5  |r|= 0.0136  e= [-0.00607197]  max|de|= -0.000119  lindep= 0.99
davidson 29 6  |r|= 0.0118  e= [-0.00614786]  max|de|= -7.59e-05  lindep= 0.942
root 0 converged  |r|= 0.006  e= -0.006174388698563244  max|de|= -2.65e-05
converged 30 7  |r|= 0.006  e= [-0.00617439]  max|de|= -2.65e-05
UHF/UKS wavefunction has an internal instability.


******** <class 'pyscf.scf.uhf.UHF'> ********
method = UHF
initial guess = minao
damping factor = 0
level_shift factor = 0
DIIS = <class 'pyscf.scf.diis.CDIIS'>
diis_start_cycle = 1
diis_space = 8
SCF conv_tol = 1e-09
SCF conv_tol_grad = None
SCF max_cycles = 100
direct_scf = True
direct_scf_tol = 1e-13
chkfile to save SCF result = /share/home/srwang/pyAutoMR/examples/tmp1kducm8c
max_memory 4000 MB (current use 1292 MB)
number electrons alpha = 36  beta = 36
Set gradient conv threshold to 3.16228e-05
init E= -3426.88089240817
  alpha nocc = 36  HOMO = -0.923164389533148  LUMO = -0.394323243755919
  beta  nocc = 36  HOMO = -0.956871148315207  LUMO = -0.38781664415488
cycle= 1 E= -3426.89536235137  delta_E= -0.0145  |g|= 0.0459  |ddm|= 0.0927
  alpha nocc = 36  HOMO = -0.915493199947557  LUMO = -0.394272291060342
  beta  nocc = 36  HOMO = -0.950989479171433  LUMO = -0.387564378377908
cycle= 2 E= -3426.89707871954  delta_E= -0.00172  |g|= 0.0199  |ddm|= 0.0379
  alpha nocc = 36  HOMO = -0.918654918815378  LUMO = -0.394457342206493
  beta  nocc = 36  HOMO = -0.959782197627213  LUMO = -0.387691267839959
cycle= 3 E= -3426.8974334865  delta_E= -0.000355  |g|= 0.0133  |ddm|= 0.0198
  alpha nocc = 36  HOMO = -0.91499921811955  LUMO = -0.394349572734646
  beta  nocc = 36  HOMO = -0.95835186854468  LUMO = -0.387546942734901
cycle= 4 E= -3426.8975629109  delta_E= -0.000129  |g|= 0.00569  |ddm|= 0.0112
  alpha nocc = 36  HOMO = -0.913808441071885  LUMO = -0.394492651723513
  beta  nocc = 36  HOMO = -0.959149441761122  LUMO = -0.387669935835796
cycle= 5 E= -3426.89760593699  delta_E= -4.3e-05  |g|= 0.00487  |ddm|= 0.00663
  alpha nocc = 36  HOMO = -0.913024703635013  LUMO = -0.39444325050328
  beta  nocc = 36  HOMO = -0.960040476888246  LUMO = -0.387616360047519
cycle= 6 E= -3426.89764359535  delta_E= -3.77e-05  |g|= 0.00282  |ddm|= 0.00677
  alpha nocc = 36  HOMO = -0.912664338079795  LUMO = -0.394452733355156
  beta  nocc = 36  HOMO = -0.960028061638709  LUMO = -0.387624951554626
cycle= 7 E= -3426.89767895553  delta_E= -3.54e-05  |g|= 0.00247  |ddm|= 0.00659
  alpha nocc = 36  HOMO = -0.913025159670353  LUMO = -0.394470352151485
  beta  nocc = 36  HOMO = -0.960406940481407  LUMO = -0.387622791928317
cycle= 8 E= -3426.89771743675  delta_E= -3.85e-05  |g|= 0.00219  |ddm|= 0.00779
  alpha nocc = 36  HOMO = -0.913528110510502  LUMO = -0.394471984793149
  beta  nocc = 36  HOMO = -0.960309804258066  LUMO = -0.387592062042514
cycle= 9 E= -3426.89779346361  delta_E= -7.6e-05  |g|= 0.00152  |ddm|= 0.0201
  alpha nocc = 36  HOMO = -0.914462133783645  LUMO = -0.394498639638604
  beta  nocc = 36  HOMO = -0.960419587286274  LUMO = -0.387581161753077
cycle= 10 E= -3426.89783416062  delta_E= -4.07e-05  |g|= 0.000947  |ddm|= 0.0191
  alpha nocc = 36  HOMO = -0.91437820279384  LUMO = -0.394485864871124
  beta  nocc = 36  HOMO = -0.960388345463094  LUMO = -0.387579546507697
cycle= 11 E= -3426.89784233929  delta_E= -8.18e-06  |g|= 0.0007  |ddm|= 0.00685
  alpha nocc = 36  HOMO = -0.914454003568673  LUMO = -0.39447608621145
  beta  nocc = 36  HOMO = -0.960396480486399  LUMO = -0.387586493625061
cycle= 12 E= -3426.89784554013  delta_E= -3.2e-06  |g|= 0.000607  |ddm|= 0.00321
  alpha nocc = 36  HOMO = -0.914546671136366  LUMO = -0.394468965852556
  beta  nocc = 36  HOMO = -0.960403823078386  LUMO = -0.387589829846175
cycle= 13 E= -3426.8978476511  delta_E= -2.11e-06  |g|= 0.000572  |ddm|= 0.00177
  alpha nocc = 36  HOMO = -0.914554932535995  LUMO = -0.394460931441929
  beta  nocc = 36  HOMO = -0.960397688818182  LUMO = -0.387588260076355
cycle= 14 E= -3426.89785067976  delta_E= -3.03e-06  |g|= 0.000542  |ddm|= 0.0026
  alpha nocc = 36  HOMO = -0.914595766817559  LUMO = -0.394465983134103
  beta  nocc = 36  HOMO = -0.96039478402867  LUMO = -0.387592368240597
cycle= 15 E= -3426.89785354603  delta_E= -2.87e-06  |g|= 0.000504  |ddm|= 0.00267
  alpha nocc = 36  HOMO = -0.914669653548036  LUMO = -0.394467359911902
  beta  nocc = 36  HOMO = -0.960404728516859  LUMO = -0.387587921539428
cycle= 16 E= -3426.89785703647  delta_E= -3.49e-06  |g|= 0.000445  |ddm|= 0.00357
  alpha nocc = 36  HOMO = -0.914642018318289  LUMO = -0.394469395650919
  beta  nocc = 36  HOMO = -0.960364262930099  LUMO = -0.387587243348382
cycle= 17 E= -3426.89785894736  delta_E= -1.91e-06  |g|= 0.000424  |ddm|= 0.00204
  alpha nocc = 36  HOMO = -0.914693283650944  LUMO = -0.394470490092399
  beta  nocc = 36  HOMO = -0.960373116688064  LUMO = -0.387586941304787
cycle= 18 E= -3426.89786180015  delta_E= -2.85e-06  |g|= 0.000401  |ddm|= 0.00308
  alpha nocc = 36  HOMO = -0.914770279542737  LUMO = -0.394466313772691
  beta  nocc = 36  HOMO = -0.96033216131146  LUMO = -0.387586404932458
cycle= 19 E= -3426.89786665948  delta_E= -4.86e-06  |g|= 0.000374  |ddm|= 0.00561
  alpha nocc = 36  HOMO = -0.914925466303153  LUMO = -0.394462090202046
  beta  nocc = 36  HOMO = -0.960312695253556  LUMO = -0.387585893158568
cycle= 20 E= -3426.89787276745  delta_E= -6.11e-06  |g|= 0.000357  |ddm|= 0.00801
  alpha nocc = 36  HOMO = -0.914966019640603  LUMO = -0.39446207376196
  beta  nocc = 36  HOMO = -0.960302964217325  LUMO = -0.387586551248999
cycle= 21 E= -3426.89787542483  delta_E= -2.66e-06  |g|= 0.00035  |ddm|= 0.00383
  alpha nocc = 36  HOMO = -0.914954385292104  LUMO = -0.394462697939197
  beta  nocc = 36  HOMO = -0.960290876829011  LUMO = -0.387586149663137
cycle= 22 E= -3426.89787742996  delta_E= -2.01e-06  |g|= 0.000348  |ddm|= 0.0029
  alpha nocc = 36  HOMO = -0.915002737725058  LUMO = -0.394462711863619
  beta  nocc = 36  HOMO = -0.960284697709768  LUMO = -0.387586762542951
cycle= 23 E= -3426.89787991818  delta_E= -2.49e-06  |g|= 0.000331  |ddm|= 0.00361
  alpha nocc = 36  HOMO = -0.915134436783046  LUMO = -0.394461705169159
  beta  nocc = 36  HOMO = -0.960282062367952  LUMO = -0.387587656072078
cycle= 24 E= -3426.8978841537  delta_E= -4.24e-06  |g|= 0.000308  |ddm|= 0.00635
  alpha nocc = 36  HOMO = -0.915387938517762  LUMO = -0.394454609923379
  beta  nocc = 36  HOMO = -0.960240759935873  LUMO = -0.387585408263223
cycle= 25 E= -3426.89789124064  delta_E= -7.09e-06  |g|= 0.000265  |ddm|= 0.0124
  alpha nocc = 36  HOMO = -0.915382412488132  LUMO = -0.394458276826284
  beta  nocc = 36  HOMO = -0.960246074352185  LUMO = -0.387587437888124
cycle= 26 E= -3426.89789352216  delta_E= -2.28e-06  |g|= 0.000246  |ddm|= 0.00477
  alpha nocc = 36  HOMO = -0.915343861605399  LUMO = -0.394457747146098
  beta  nocc = 36  HOMO = -0.960251056503818  LUMO = -0.387584850607679
cycle= 27 E= -3426.89789609677  delta_E= -2.57e-06  |g|= 0.000224  |ddm|= 0.00608
  alpha nocc = 36  HOMO = -0.915438836678475  LUMO = -0.394457422713818
  beta  nocc = 36  HOMO = -0.960236216151018  LUMO = -0.387586023326779
cycle= 28 E= -3426.89789857166  delta_E= -2.47e-06  |g|= 0.000181  |ddm|= 0.00709
  alpha nocc = 36  HOMO = -0.91590694970568  LUMO = -0.394446299411099
  beta  nocc = 36  HOMO = -0.960159913817173  LUMO = -0.387586096022529
cycle= 29 E= -3426.89790223905  delta_E= -3.67e-06  |g|= 0.000226  |ddm|= 0.0152
  alpha nocc = 36  HOMO = -0.915559178638142  LUMO = -0.394452008576563
  beta  nocc = 36  HOMO = -0.960193778773165  LUMO = -0.387585424987289
cycle= 30 E= -3426.89790207581  delta_E= 1.63e-07  |g|= 0.000133  |ddm|= 0.00127
  alpha nocc = 36  HOMO = -0.915721060470926  LUMO = -0.394450209043933
  beta  nocc = 36  HOMO = -0.960183700260747  LUMO = -0.387586521953732
cycle= 31 E= -3426.89790302601  delta_E= -9.5e-07  |g|= 0.000171  |ddm|= 0.00687
  alpha nocc = 36  HOMO = -0.915695390959731  LUMO = -0.39445020746424
  beta  nocc = 36  HOMO = -0.960183019594726  LUMO = -0.387586316954155
cycle= 32 E= -3426.89790334465  delta_E= -3.19e-07  |g|= 0.000124  |ddm|= 0.00379
  alpha nocc = 36  HOMO = -0.915471156008202  LUMO = -0.394454688619911
  beta  nocc = 36  HOMO = -0.96021492281483  LUMO = -0.38758616183245
cycle= 33 E= -3426.89790340593  delta_E= -6.13e-08  |g|= 5.95e-05  |ddm|= 0.00075
  alpha nocc = 36  HOMO = -0.915545549054039  LUMO = -0.394453612571488
  beta  nocc = 36  HOMO = -0.960218581985211  LUMO = -0.387585667265619
cycle= 34 E= -3426.89790354129  delta_E= -1.35e-07  |g|= 5.39e-05  |ddm|= 0.00322
  alpha nocc = 36  HOMO = -0.915456695698147  LUMO = -0.394455822447555
  beta  nocc = 36  HOMO = -0.96023458820479  LUMO = -0.387585683059614
cycle= 35 E= -3426.89790356282  delta_E= -2.15e-08  |g|= 4.09e-05  |ddm|= 0.000652
  alpha nocc = 36  HOMO = -0.915488193954567  LUMO = -0.394454779658762
  beta  nocc = 36  HOMO = -0.960232660285202  LUMO = -0.387585238904582
cycle= 36 E= -3426.89790357895  delta_E= -1.61e-08  |g|= 3.75e-05  |ddm|= 0.000825
  alpha nocc = 36  HOMO = -0.915479638573289  LUMO = -0.394455239569284
  beta  nocc = 36  HOMO = -0.960231827161853  LUMO = -0.387585587813412
cycle= 37 E= -3426.89790359123  delta_E= -1.23e-08  |g|= 3.19e-05  |ddm|= 0.00101
  alpha nocc = 36  HOMO = -0.915480613789278  LUMO = -0.394454897562356
  beta  nocc = 36  HOMO = -0.960230789189358  LUMO = -0.38758538611379
cycle= 38 E= -3426.89790359274  delta_E= -1.51e-09  |g|= 2.7e-05  |ddm|= 0.000805
  alpha nocc = 36  HOMO = -0.915478154391416  LUMO = -0.394454948909221
  beta  nocc = 36  HOMO = -0.960229851040965  LUMO = -0.387585610870229
cycle= 39 E= -3426.89790358814  delta_E= 4.6e-09  |g|= 2.31e-05  |ddm|= 0.000748
  alpha nocc = 36  HOMO = -0.9154753704916  LUMO = -0.394454938168673
  beta  nocc = 36  HOMO = -0.960228213340835  LUMO = -0.387585695207102
cycle= 40 E= -3426.89790358902  delta_E= -8.84e-10  |g|= 2.25e-05  |ddm|= 0.00015
  alpha nocc = 36  HOMO = -0.915477738487216  LUMO = -0.394454872868346
  beta  nocc = 36  HOMO = -0.9602294423598  LUMO = -0.387585621460787
Extra cycle  E= -3426.89790358978  delta_E= -7.58e-10  |g|= 2.19e-05  |ddm|= 1.97e-05
converged SCF energy = -3426.89790358978  <S^2> = 1.9680438  2S+1 = 2.9786197
**** checking UHF/UKS internal stability ...
tol 0.0001  toloose 0.01
max_cycle 50  max_space 12  max_memory 2000  incore True
davidson 0 1  |r|= 4.37  e= [3.0332814]  max|de|= 3.03  lindep= 0.999
davidson 1 2  |r|= 0.338  e= [2.52811685]  max|de|= -0.505  lindep= 0.999
davidson 2 3  |r|= 0.353  e= [2.07612787]  max|de|= -0.452  lindep= 0.999
davidson 3 4  |r|= 0.333  e= [1.66283719]  max|de|= -0.413  lindep= 0.999
davidson 4 5  |r|= 0.326  e= [1.23450545]  max|de|= -0.428  lindep= 0.998
davidson 5 6  |r|= 0.42  e= [0.79978198]  max|de|= -0.435  lindep= 0.998
davidson 6 7  |r|= 0.471  e= [0.72676112]  max|de|= -0.073  lindep= 0.961
davidson 7 8  |r|= 0.671  e= [0.40583119]  max|de|= -0.321  lindep= 0.955
davidson 8 9  |r|= 0.604  e= [0.15904611]  max|de|= -0.247  lindep= 0.946
davidson 9 10  |r|= 0.24  e= [0.08779943]  max|de|= -0.0712  lindep= 0.962
davidson 10 11  |r|= 0.115  e= [0.06019381]  max|de|= -0.0276  lindep= 0.978
davidson 11 12  |r|= 0.0834  e= [0.05438226]  max|de|= -0.00581  lindep= 0.952
davidson 12 1  |r|= 0.0834  e= [0.05438226]  max|de|= -5.9e-16  lindep= 0.995
davidson 13 2  |r|= 0.0606  e= [0.0522399]  max|de|= -0.00214  lindep= 0.933
davidson 14 3  |r|= 0.154  e= [0.04481684]  max|de|= -0.00742  lindep= 0.981
davidson 15 4  |r|= 0.237  e= [0.0305893]  max|de|= -0.0142  lindep= 0.918
davidson 16 5  |r|= 0.132  e= [0.02013788]  max|de|= -0.0105  lindep= 0.963
davidson 17 6  |r|= 0.0774  e= [0.0154615]  max|de|= -0.00468  lindep= 0.91
davidson 18 7  |r|= 0.0814  e= [0.01188484]  max|de|= -0.00358  lindep= 0.954
davidson 19 8  |r|= 0.0827  e= [0.0081213]  max|de|= -0.00376  lindep= 0.965
davidson 20 9  |r|= 0.0345  e= [0.00671627]  max|de|= -0.00141  lindep= 0.963
davidson 21 10  |r|= 0.0192  e= [0.0063611]  max|de|= -0.000355  lindep= 0.901
root 0 converged  |r|= 0.00997  e= 0.006287559535581417  max|de|= -7.35e-05
converged 22 11  |r|= 0.00997  e= [0.00628756]  max|de|= -7.35e-05
UHF/UKS wavefunction is stable in the internal stability analysis
time for guess: 33.011
