 Entering Gaussian System, Link 0=/share/apps/gaussian/G16B01/AVX2/g16/g16
 Initial command:
 /share/apps/gaussian/G16B01/AVX2/g16/l1.exe "/scratch/scr/srwang/xc06n05/202109161722.152681/Gau-152710.inp" -scrdir="/scratch/scr/srwang/xc06n05/202109161722.152681/"
 Entering Link 1 = /share/apps/gaussian/G16B01/AVX2/g16/l1.exe PID=    152711.
  
 Copyright (c) 1988-2017, Gaussian, Inc.  All Rights Reserved.
  
 This is part of the Gaussian(R) 16 program.  It is based on
 the Gaussian(R) 09 system (copyright 2009, Gaussian, Inc.),
 the Gaussian(R) 03 system (copyright 2003, Gaussian, Inc.),
 the Gaussian(R) 98 system (copyright 1998, Gaussian, Inc.),
 the Gaussian(R) 94 system (copyright 1995, Gaussian, Inc.),
 the Gaussian 92(TM) system (copyright 1992, Gaussian, Inc.),
 the Gaussian 90(TM) system (copyright 1990, Gaussian, Inc.),
 the Gaussian 88(TM) system (copyright 1988, Gaussian, Inc.),
 the Gaussian 86(TM) system (copyright 1986, Carnegie Mellon
 University), and the Gaussian 82(TM) system (copyright 1983,
 Carnegie Mellon University). Gaussian is a federally registered
 trademark of Gaussian, Inc.
  
 This software contains proprietary and confidential information,
 including trade secrets, belonging to Gaussian, Inc.
  
 This software is provided under written license and may be
 used, copied, transmitted, or stored only in accord with that
 written license.
  
 The following legend is applicable only to US Government
 contracts under FAR:
  
                    RESTRICTED RIGHTS LEGEND
  
 Use, reproduction and disclosure by the US Government is
 subject to restrictions as set forth in subparagraphs (a)
 and (c) of the Commercial Computer Software - Restricted
 Rights clause in FAR 52.227-19.
  
 Gaussian, Inc.
 340 Quinnipiac St., Bldg. 40, Wallingford CT 06492
  
  
 ---------------------------------------------------------------
 Warning -- This program may not be used in any manner that
 competes with the business of Gaussian, Inc. or will provide
 assistance to any competitor of Gaussian, Inc.  The licensee
 of this program is prohibited from giving any competitor of
 Gaussian, Inc. access to this program.  By using this program,
 the user acknowledges that Gaussian, Inc. is engaged in the
 business of creating and licensing software in the field of
 computational chemistry and represents and warrants to the
 licensee that it is not a competitor of Gaussian, Inc. and that
 it will not use this program in any manner prohibited above.
 ---------------------------------------------------------------
  

 Cite this work as:
 Gaussian 16, Revision B.01,
 M. J. Frisch, G. W. Trucks, H. B. Schlegel, G. E. Scuseria, 
 M. A. Robb, J. R. Cheeseman, G. Scalmani, V. Barone, 
 G. A. Petersson, H. Nakatsuji, X. Li, M. Caricato, A. V. Marenich, 
 J. Bloino, B. G. Janesko, R. Gomperts, B. Mennucci, H. P. Hratchian, 
 J. V. Ortiz, A. F. Izmaylov, J. L. Sonnenberg, D. Williams-Young, 
 F. Ding, F. Lipparini, F. Egidi, J. Goings, B. Peng, A. Petrone, 
 T. Henderson, D. Ranasinghe, V. G. Zakrzewski, J. Gao, N. Rega, 
 G. Zheng, W. Liang, M. Hada, M. Ehara, K. Toyota, R. Fukuda, 
 J. Hasegawa, M. Ishida, T. Nakajima, Y. Honda, O. Kitao, H. Nakai, 
 T. Vreven, K. Throssell, J. A. Montgomery, Jr., J. E. Peralta, 
 F. Ogliaro, M. J. Bearpark, J. J. Heyd, E. N. Brothers, K. N. Kudin, 
 V. N. Staroverov, T. A. Keith, R. Kobayashi, J. Normand, 
 K. Raghavachari, A. P. Rendell, J. C. Burant, S. S. Iyengar, 
 J. Tomasi, M. Cossi, J. M. Millam, M. Klene, C. Adamo, R. Cammi, 
 J. W. Ochterski, R. L. Martin, K. Morokuma, O. Farkas, 
 J. B. Foresman, and D. J. Fox, Gaussian, Inc., Wallingford CT, 2016.
 
 ******************************************
 Gaussian 16:  ES64L-G16RevB.01 20-Dec-2017
                16-Sep-2021 
 ******************************************
 %nproc=4
 Will use up to    4 processors via shared memory.
 %mem=4gb
 %chk=/scratch/scr/srwang/xc06n05/202109161722.152681/N2.chk
 -------------------------------------
 # rpbe1pbe def2tzvp stable=(opt,rrhf)
 -------------------------------------
 1/38=1,172=1/1;
 2/12=2,17=6,18=5,40=1/2;
 3/5=44,7=101,11=2,25=1,30=1,74=-13,116=1/1,2,3;
 4//1;
 5/5=2,38=5/2;
 6/7=2,8=2,9=2,10=2,28=1/1;
 8/6=1,10=90,11=11/1;
 9/8=-3,42=1,46=1,48=1/14;
 5/5=2,8=3,17=40,38=5/8(-2);
 6/7=2,8=2,9=2,10=2,28=1/1;
 99/5=1,9=1/99;
 -----
 title
 -----
 Symbolic Z-matrix:
 Charge =  0 Multiplicity = 1
 N                     0.        0.        0. 
 N                     0.        0.        9. 
 
                          Input orientation:                          
 ---------------------------------------------------------------------
 Center     Atomic      Atomic             Coordinates (Angstroms)
 Number     Number       Type             X           Y           Z
 ---------------------------------------------------------------------
      1          7           0        0.000000    0.000000    0.000000
      2          7           0        0.000000    0.000000    9.000000
 ---------------------------------------------------------------------
 Stoichiometry    N2
 Framework group  D*H[C*(N.N)]
 Deg. of freedom     1
 Full point group                 D*H     NOp   8
 Largest Abelian subgroup         D2H     NOp   8
 Largest concise Abelian subgroup C2      NOp   2
                         Standard orientation:                         
 ---------------------------------------------------------------------
 Center     Atomic      Atomic             Coordinates (Angstroms)
 Number     Number       Type             X           Y           Z
 ---------------------------------------------------------------------
      1          7           0        0.000000    0.000000    4.500000
      2          7           0        0.000000    0.000000   -4.500000
 ---------------------------------------------------------------------
 Rotational constants (GHZ):           0.0000000           0.8911253           0.8911253
 Standard basis: def2TZVP (5D, 7F)
 There are    17 symmetry adapted cartesian basis functions of AG  symmetry.
 There are     3 symmetry adapted cartesian basis functions of B1G symmetry.
 There are     8 symmetry adapted cartesian basis functions of B2G symmetry.
 There are     8 symmetry adapted cartesian basis functions of B3G symmetry.
 There are     3 symmetry adapted cartesian basis functions of AU  symmetry.
 There are    17 symmetry adapted cartesian basis functions of B1U symmetry.
 There are     8 symmetry adapted cartesian basis functions of B2U symmetry.
 There are     8 symmetry adapted cartesian basis functions of B3U symmetry.
 There are    14 symmetry adapted basis functions of AG  symmetry.
 There are     3 symmetry adapted basis functions of B1G symmetry.
 There are     7 symmetry adapted basis functions of B2G symmetry.
 There are     7 symmetry adapted basis functions of B3G symmetry.
 There are     3 symmetry adapted basis functions of AU  symmetry.
 There are    14 symmetry adapted basis functions of B1U symmetry.
 There are     7 symmetry adapted basis functions of B2U symmetry.
 There are     7 symmetry adapted basis functions of B3U symmetry.
    62 basis functions,   102 primitive gaussians,    72 cartesian basis functions
     7 alpha electrons        7 beta electrons
       nuclear repulsion energy         2.8810759261 Hartrees.
 NAtoms=    2 NActive=    2 NUniq=    1 SFac= 4.00D+00 NAtFMM=   60 NAOKFM=F Big=F
 Integral buffers will be    131072 words long.
 Raffenetti 2 integral format.
 Two-electron integral symmetry is turned on.
 One-electron integrals computed using PRISM.
   8 Symmetry operations used in ECPInt.
 ECPInt:  NShTT=     253 NPrTT=     864 LenC2=     178 LenP2D=     545.
 LDataN:  DoStor=T MaxTD1= 6 Len=  172
 NBasis=    62 RedAO= T EigKep=  2.95D-02  NBF=    14     3     7     7     3    14     7     7
 NBsUse=    62 1.00D-06 EigRej= -1.00D+00 NBFU=    14     3     7     7     3    14     7     7
 ExpMin= 1.36D-01 ExpMax= 1.97D+04 ExpMxC= 6.73D+02 IAcc=3 IRadAn=         5 AccDes= 0.00D+00
 Harris functional with IExCor= 1009 and IRadAn=       5 diagonalized for initial guess.
 HarFok:  IExCor= 1009 AccDes= 0.00D+00 IRadAn=         5 IDoV= 1 UseB2=F ITyADJ=14
 ICtDFT=  3500011 ScaDFX=  1.000000  1.000000  1.000000  1.000000
 FoFCou: FMM=F IPFlag=           0 FMFlag=      100000 FMFlg1=           0
         NFxFlg=           0 DoJE=T BraDBF=F KetDBF=T FulRan=T
         wScrn=  0.000000 ICntrl=       500 IOpCl=  0 I1Cent=   200000004 NGrid=           0
         NMat0=    1 NMatS0=      1 NMatT0=    0 NMatD0=    1 NMtDS0=    0 NMtDT0=    0
 Petite list used in FoFCou.
 Initial guess orbital symmetries:
       Occupied  (SGU) (SGG) (SGG) (SGU) (PIU) (PIU) (PIG)
       Virtual   (PIG) (SGG) (SGU) (SGG) (SGU) (PIU) (PIU) (PIG)
                 (PIG) (SGG) (SGU) (SGU) (SGG) (DLTG) (DLTU) (PIU)
                 (PIU) (PIG) (PIG) (DLTU) (DLTG) (SGG) (SGU) (PIU)
                 (PIU) (PIG) (PIG) (SGG) (SGU) (SGU) (SGG) (PHIG)
                 (PHIU) (PHIU) (PHIG) (DLTG) (DLTU) (DLTU) (DLTG)
                 (PIG) (PIU) (PIG) (PIU) (SGU) (SGG) (PIU) (PIG)
                 (PIU) (PIG) (DLTG) (DLTU) (DLTU) (DLTG) (SGG)
                 (SGU)
 Keep R1 ints in memory in symmetry-blocked form, NReq=5506459.
 Requested convergence on RMS density matrix=1.00D-08 within 128 cycles.
 Requested convergence on MAX density matrix=1.00D-06.
 Requested convergence on             energy=1.00D-06.
 No special actions if energy rises.
 Integral accuracy reduced to 1.0D-05 until final iterations.
 Initial convergence to 1.0D-05 achieved.  Increase integral accuracy.
 SCF Done:  E(RPBE1PBE) =  -108.743170338     A.U. after    8 cycles
            NFock=  8  Conv=0.16D-08     -V/T= 2.0030

 **********************************************************************

            Population analysis using the SCF Density.

 **********************************************************************

 Orbital symmetries:
       Occupied  (SGG) (SGU) (SGG) (SGU) (PIU) (PIG) (PIU)
       Virtual   (PIG) (SGG) (SGU) (SGG) (SGU) (SGG) (SGU) (PIU)
                 (PIG) (PIU) (PIG) (PIU) (PIG) (?A) (?B) (PIU)
                 (PIG) (?A) (?B) (?A) (?B) (SGG) (SGU) (SGG) (SGU)
                 (PIU) (PIG) (PIU) (PIG) (?C) (?D) (?E) (?F) (?C)
                 (?D) (?E) (?F) (?E) (?F) (?C) (?D) (?C) (?D) (PIU)
                 (PIG) (?G) (?H) (PIU) (PIG) (?G) (?H) (?G) (?H)
                 (SGG) (SGU)
 Unable to determine electronic state:  partially filled degenerate orbitals.
 Alpha  occ. eigenvalues --  -14.53479 -14.53479  -0.76493  -0.76489  -0.30349
 Alpha  occ. eigenvalues --   -0.30349  -0.26640
 Alpha virt. eigenvalues --   -0.25176  -0.20825  -0.20825   0.23785   0.23786
 Alpha virt. eigenvalues --    0.34292   0.34292   0.34509   0.34509   0.35081
 Alpha virt. eigenvalues --    0.35081   1.00896   1.00900   1.01122   1.01124
 Alpha virt. eigenvalues --    1.02089   1.02089   1.03384   1.03386   1.03888
 Alpha virt. eigenvalues --    1.03889   1.82488   1.82488   1.97758   1.97758
 Alpha virt. eigenvalues --    1.98608   1.98608   2.00056   2.00056   3.81897
 Alpha virt. eigenvalues --    3.81897   3.81964   3.81964   3.84006   3.84006
 Alpha virt. eigenvalues --    3.84375   3.84375   3.85515   3.85515   3.87627
 Alpha virt. eigenvalues --    3.87627   3.87737   3.87737   4.36773   4.36773
 Alpha virt. eigenvalues --    4.37109   4.37109   4.38606   4.38606   4.40722
 Alpha virt. eigenvalues --    4.40722   4.41474   4.41474  31.00085  31.00085
          Condensed to atoms (all electrons):
               1          2
     1  N    7.000000   0.000000
     2  N    0.000000   7.000000
 Mulliken charges:
               1
     1  N   -0.000000
     2  N   -0.000000
 Sum of Mulliken charges =  -0.00000
 Mulliken charges with hydrogens summed into heavy atoms:
               1
     1  N   -0.000000
     2  N   -0.000000
 Electronic spatial extent (au):  <R**2>=           1038.2537
 Charge=             -0.0000 electrons
 Dipole moment (field-independent basis, Debye):
    X=             -0.0000    Y=             -0.0000    Z=              0.0000  Tot=              0.0000
 Quadrupole moment (field-independent basis, Debye-Ang):
   XX=            -14.4991   YY=            -11.6863   ZZ=             -8.5929
   XY=             -0.0000   XZ=              0.0000   YZ=              0.0000
 Traceless Quadrupole moment (field-independent basis, Debye-Ang):
   XX=             -2.9064   YY=             -0.0935   ZZ=              2.9999
   XY=             -0.0000   XZ=              0.0000   YZ=              0.0000
 Octapole moment (field-independent basis, Debye-Ang**2):
  XXX=             -0.0000  YYY=              0.0000  ZZZ=              0.0000  XYY=             -0.0000
  XXY=             -0.0000  XXZ=              0.0000  XZZ=             -0.0000  YZZ=             -0.0000
  YYZ=              0.0000  XYZ=              0.0000
 Hexadecapole moment (field-independent basis, Debye-Ang**3):
 XXXX=            -16.1340 YYYY=            -11.6105 ZZZZ=          -1052.2316 XXXY=             -0.0000
 XXXZ=              0.0000 YYYX=             -0.0000 YYYZ=              0.0000 ZZZX=              0.0000
 ZZZY=              0.0000 XXYY=             -4.6260 XXZZ=           -297.3772 YYZZ=           -239.6525
 XXYZ=              0.0000 YYXZ=              0.0000 ZZXY=             -0.0000
 N-N= 2.881075926120D+00 E-N=-2.615569582441D+02  KE= 1.084203262628D+02
 Symmetry AG   KE= 4.883975661704D+01
 Symmetry B1G  KE= 6.155674829549D-36
 Symmetry B2G  KE= 3.615275920261D+00
 Symmetry B3G  KE=-2.413671488785D-33
 Symmetry AU   KE= 8.227889639890D-36
 Symmetry B1U  KE= 4.883988905869D+01
 Symmetry B2U  KE= 3.510130176978D+00
 Symmetry B3U  KE= 3.615274489852D+00
 DoSCS=F DFT=T ScalE2(SS,OS)=  1.000000  1.000000
 Range of M.O.s used for correlation:     1    62
 NBasis=    62 NAE=     7 NBE=     7 NFC=     0 NFV=     0
 NROrb=     62 NOA=     7 NOB=     7 NVA=    55 NVB=    55

 **** Warning!!: The smallest alpha delta epsilon is  0.14641324D-01

 Keep R1 and R2 ints in memory in symmetry-blocked form, NReq=8275915.
 Orbital symmetries:
       Occupied  (SGG) (SGU) (SGG) (SGU) (PIU) (PIG) (PIU)
       Virtual   (PIG) (SGG) (SGU) (SGG) (SGU) (SGG) (SGU) (PIU)
                 (PIG) (PIU) (PIG) (PIU) (PIG) (?A) (?B) (PIU)
                 (PIG) (?A) (?B) (?A) (?B) (SGG) (SGU) (SGG) (SGU)
                 (PIU) (PIG) (PIU) (PIG) (?C) (?D) (?E) (?F) (?C)
                 (?D) (?E) (?F) (?E) (?F) (?C) (?D) (?C) (?D) (PIU)
                 (PIG) (?G) (?H) (PIU) (PIG) (?G) (?H) (?G) (?H)
                 (SGG) (SGU)
    24 initial guesses have been made.
 Convergence on wavefunction:    0.001000000000000
 Iteration     1 Dimension    24 NMult     0 NNew     24
 CISAX will form    24 AO SS matrices at one time.
 New state      1 was old state      5
 Iteration     2 Dimension    48 NMult    24 NNew     24
 Iteration     3 Dimension    51 NMult    48 NNew      3
 ***********************************************************************
 Stability analysis using <AA,BB:AA,BB> singles matrix:
 ***********************************************************************
 Ground to excited state transition densities written to RWF  633

 Eigenvectors of the stability matrix:
 
 Excited state symmetry could not be determined.
 Eigenvector   1:      Singlet-?Sym  Eigenvalue=-0.0000605  <S**2>=0.000
       7 -> 10         0.70692
 The wavefunction is stable under the perturbations considered.
 The wavefunction is already stable.

 **********************************************************************

            Population analysis using the SCF Density.

 **********************************************************************

 Orbital symmetries:
       Occupied  (SGG) (SGU) (SGG) (SGU) (PIU) (PIG) (PIU)
       Virtual   (PIG) (SGG) (SGU) (SGG) (SGU) (SGG) (SGU) (PIU)
                 (PIG) (PIU) (PIG) (PIU) (PIG) (?A) (?B) (PIU)
                 (PIG) (?A) (?B) (?A) (?B) (SGG) (SGU) (SGG) (SGU)
                 (PIU) (PIG) (PIU) (PIG) (?C) (?D) (?E) (?F) (?C)
                 (?D) (?E) (?F) (?E) (?F) (?C) (?D) (?C) (?D) (PIU)
                 (PIG) (?G) (?H) (PIU) (PIG) (?G) (?H) (?G) (?H)
                 (SGG) (SGU)
 Unable to determine electronic state:  partially filled degenerate orbitals.
 Alpha  occ. eigenvalues --  -14.53479 -14.53479  -0.76493  -0.76489  -0.30349
 Alpha  occ. eigenvalues --   -0.30349  -0.26640
 Alpha virt. eigenvalues --   -0.25176  -0.20825  -0.20825   0.23785   0.23786
 Alpha virt. eigenvalues --    0.34292   0.34292   0.34509   0.34509   0.35081
 Alpha virt. eigenvalues --    0.35081   1.00896   1.00900   1.01122   1.01124
 Alpha virt. eigenvalues --    1.02089   1.02089   1.03384   1.03386   1.03888
 Alpha virt. eigenvalues --    1.03889   1.82488   1.82488   1.97758   1.97758
 Alpha virt. eigenvalues --    1.98608   1.98608   2.00056   2.00056   3.81897
 Alpha virt. eigenvalues --    3.81897   3.81964   3.81964   3.84006   3.84006
 Alpha virt. eigenvalues --    3.84375   3.84375   3.85515   3.85515   3.87627
 Alpha virt. eigenvalues --    3.87627   3.87737   3.87737   4.36773   4.36773
 Alpha virt. eigenvalues --    4.37109   4.37109   4.38606   4.38606   4.40722
 Alpha virt. eigenvalues --    4.40722   4.41474   4.41474  31.00085  31.00085
          Condensed to atoms (all electrons):
               1          2
     1  N    7.000000   0.000000
     2  N    0.000000   7.000000
 Mulliken charges:
               1
     1  N   -0.000000
     2  N   -0.000000
 Sum of Mulliken charges =  -0.00000
 Mulliken charges with hydrogens summed into heavy atoms:
               1
     1  N   -0.000000
     2  N   -0.000000
 Electronic spatial extent (au):  <R**2>=           1038.2537
 Charge=             -0.0000 electrons
 Dipole moment (field-independent basis, Debye):
    X=             -0.0000    Y=             -0.0000    Z=              0.0000  Tot=              0.0000
 Quadrupole moment (field-independent basis, Debye-Ang):
   XX=            -14.4991   YY=            -11.6863   ZZ=             -8.5929
   XY=             -0.0000   XZ=              0.0000   YZ=              0.0000
 Traceless Quadrupole moment (field-independent basis, Debye-Ang):
   XX=             -2.9064   YY=             -0.0935   ZZ=              2.9999
   XY=             -0.0000   XZ=              0.0000   YZ=              0.0000
 Octapole moment (field-independent basis, Debye-Ang**2):
  XXX=             -0.0000  YYY=              0.0000  ZZZ=              0.0000  XYY=             -0.0000
  XXY=             -0.0000  XXZ=              0.0000  XZZ=             -0.0000  YZZ=             -0.0000
  YYZ=              0.0000  XYZ=              0.0000
 Hexadecapole moment (field-independent basis, Debye-Ang**3):
 XXXX=            -16.1340 YYYY=            -11.6105 ZZZZ=          -1052.2316 XXXY=             -0.0000
 XXXZ=              0.0000 YYYX=             -0.0000 YYYZ=              0.0000 ZZZX=              0.0000
 ZZZY=              0.0000 XXYY=             -4.6260 XXZZ=           -297.3772 YYZZ=           -239.6525
 XXYZ=              0.0000 YYXZ=              0.0000 ZZXY=             -0.0000
 N-N= 2.881075926120D+00 E-N=-2.615569582441D+02  KE= 1.084203262628D+02
 Symmetry AG   KE= 4.883975661704D+01
 Symmetry B1G  KE= 6.155674829549D-36
 Symmetry B2G  KE= 3.615275920261D+00
 Symmetry B3G  KE=-2.413671488785D-33
 Symmetry AU   KE= 8.227889639890D-36
 Symmetry B1U  KE= 4.883988905869D+01
 Symmetry B2U  KE= 3.510130176978D+00
 Symmetry B3U  KE= 3.615274489852D+00
 1\1\GINC-XC06N05\Stability\RPBE1PBE\def2TZVP\N2\SRWANG\16-Sep-2021\0\\
 # rpbe1pbe def2tzvp stable=(opt,rrhf)\\title\\0,1\N,0,0.,0.,0.\N,0,0.,
 0.,9.\\Version=ES64L-G16RevB.01\HF=-108.7431703\RMSD=1.618e-09\Dipole=
 0.,0.,0.\Quadrupole=-2.1608139,-0.0695187,2.2303326,0.,0.,0.\PG=D*H [C
 *(N1.N1)]\\@


 QUANTUM MECHANICS IS BOHRING -- M.S. GORDON
 Job cpu time:       0 days  0 hours  0 minutes  5.7 seconds.
 Elapsed time:       0 days  0 hours  0 minutes  1.7 seconds.
 File lengths (MBytes):  RWF=     30 Int=      0 D2E=      0 Chk=      2 Scr=      1
 Normal termination of Gaussian 16 at Thu Sep 16 17:22:59 2021.
