#INFO: **** input file is /share/home/srwang/pyAutoMR/examples/guess/N2-RKS.py ****
from pyscf import gto, dft
from automr import guess, dump_mat
import numpy as np
#mf=guess.from_fch_simp("v2.fchk", xc='pbe0')

#mf2.verbose=9
#mf2.stability()
for r in np.arange(1.5, 3.0, 0.1):
    mol = gto.Mole(atom='''N 0.0 0.0 0.0; N 0.0 0.0 %f'''%r, basis='def2-svp', verbose=5).build()
    mf = dft.RKS(mol)
    mf.xc = 'pbe0'
    mf.kernel()
    dump_mat.dump_mo(mol, mf.mo_coeff[:,:12])
    print(mf.mo_energy[:12])
    
    mf2 = guess.check_stab(mf, newton=True, res=True)
    dump_mat.dump_mo(mol, mf2.mo_coeff[:,:12])
    print(mf2.mo_energy[:12])
    print('scan %.2f, %.6f' % (r, mf2.e_tot))
#INFO: ******************** input file end ********************


System: uname_result(system='Linux', node='xc06n05', release='3.10.0-1127.el7.x86_64', version='#1 SMP Tue Feb 18 16:39:12 EST 2020', machine='x86_64', processor='x86_64')  Threads 48
Python 3.7.4 (default, Aug 13 2019, 20:35:49) 
[GCC 7.3.0]
numpy 1.17.2  scipy 1.4.1
Date: Thu Sep 16 17:41:35 2021
PySCF version 1.7.6a1
PySCF path  /share/home/srwang/pyscf/pyscf
GIT ORIG_HEAD 80f71dfe77ac5f9caae26788acf76446987635bd
GIT HEAD      ref: refs/heads/master
GIT master branch  80f71dfe77ac5f9caae26788acf76446987635bd

[ENV] PYSCF_EXT_PATH /share/home/srwang/pyscf_ext/fciqmc:
[CONFIG] conf_file /share/home/srwang/.pyscf_conf.py
[INPUT] verbose = 5
[INPUT] max_memory = 4000 
[INPUT] num. atoms = 2
[INPUT] num. electrons = 14
[INPUT] charge = 0
[INPUT] spin (= nelec alpha-beta = 2S) = 0
[INPUT] symmetry False subgroup None
[INPUT] Mole.unit = angstrom
[INPUT]  1 N      0.000000000000   0.000000000000   0.000000000000 AA    0.000000000000   0.000000000000   0.000000000000 Bohr
[INPUT]  2 N      0.000000000000   0.000000000000   1.500000000000 AA    0.000000000000   0.000000000000   2.834589186848 Bohr
[INPUT] ---------------- BASIS SET ---------------- 
[INPUT] l, kappa, [nprim/nctr], expnt,             c_1 c_2 ...
[INPUT] N
[INPUT] 0    0    [5    /1   ]  1712.8415853      -0.0053934125305
                                257.64812677      -0.040221581118
                                58.458245853      -0.1793114499
                                16.198367905      -0.46376317823
                                5.0052600809      -0.44171422662
[INPUT] 0    0    [1    /1   ]  0.58731856571        1
[INPUT] 0    0    [1    /1   ]  0.18764592253        1
[INPUT] 1    0    [3    /1   ]  13.571470233      -0.040072398852
                                2.9257372874      -0.21807045028
                                0.79927750754     -0.51294466049
[INPUT] 1    0    [1    /1   ]  0.21954348034        1
[INPUT] 2    0    [1    /1   ]  1                    1

nuclear repulsion = 17.28645555672
number of shells = 12
number of NR pGTOs = 48
number of NR cGTOs = 28
basis = def2-svp
ecp = {}
CPU time:         0.81


******** <class 'pyscf.dft.rks.RKS'> ********
method = RKS-RHF
initial guess = minao
damping factor = 0
level_shift factor = 0
DIIS = <class 'pyscf.scf.diis.CDIIS'>
diis_start_cycle = 1
diis_space = 8
SCF conv_tol = 1e-09
SCF conv_tol_grad = None
SCF max_cycles = 50
direct_scf = True
direct_scf_tol = 1e-13
chkfile to save SCF result = /share/home/srwang/pyAutoMR/examples/guess/tmppgmk4mpo
max_memory 4000 MB (current use 108 MB)
XC functionals = pbe0
small_rho_cutoff = 1e-07
radial grids: 
    Treutler-Ahlrichs [JCP 102, 346 (1995); DOI:10.1063/1.469408] (M4) radial grids
    
becke partition: Becke, JCP 88, 2547 (1988); DOI:10.1063/1.454033
pruning grids: <function nwchem_prune at 0x2aaf78ea5830>
grids dens level: 3
symmetrized grids: False
atomic radii adjust function: <function treutler_atomic_radii_adjust at 0x2aaf78ea5cb0>
Set gradient conv threshold to 3.16228e-05
atom N rad-grids = 75, ang-grids = [ 50  50  50  50  50  50  50  50  50  50  50  50  50  50  50  50  50  50  50  50  50  50  50  86  86  86  86  86  86  86  86  86 266 266 266 266 266 266 266
 302 302 302 302 302 302 302 302 302 302 302 302 302 302 302 302 302 302 302 266 266 266 266 266 266 266 266 266 266 266 266 266 266 266 266 266]
tot grids = 28092
Drop grids 3898
    CPU time for setting up grids      0.44 sec, wall time      0.01 sec
nelec by numeric integration = 13.992294148295112
    CPU time for vxc      0.97 sec, wall time      0.02 sec
E1 = -182.74871854756117  Ecoul = 69.96765439124276  Exc = -13.283384575915647
init E= -108.777993175514
cond(S) = 125.99786978685691
    CPU time for initialize scf      2.95 sec, wall time      0.09 sec
  HOMO = -0.295651681132545  LUMO = -0.1179109740193
  mo_energy =
[-14.388014 -14.388007  -0.900274  -0.585189  -0.324788  -0.295652  -0.295652  -0.117911  -0.117911   0.156802   0.567951   0.672341   0.736996   0.736996
   0.817249   0.817249   0.831282   0.910504   1.855011   1.855011   2.078969   2.078969   2.089954   2.206757   2.206758   2.574075   2.574075   3.125624]
nelec by numeric integration = 13.999999092346599
    CPU time for vxc      1.04 sec, wall time      0.02 sec
E1 = -180.90004340805768  Ecoul = 67.61075946605236  Exc = -13.086420287729203
cycle= 1 E= -109.089248673015  delta_E= -0.311  |g|= 0.248  |ddm|=  1.6
    CPU time for cycle= 1      1.32 sec, wall time      0.03 sec
  HOMO = -0.432009501366511  LUMO = -0.193120523366472
  mo_energy =
[-14.675513 -14.675444  -1.003914  -0.694003  -0.463291  -0.43201   -0.43201   -0.193121  -0.193121   0.057657   0.502124   0.612536   0.645008   0.645008
   0.741106   0.741106   0.747529   0.846005   1.749022   1.749022   1.969836   1.969837   1.980361   2.101486   2.101487   2.472148   2.472148   3.023238]
nelec by numeric integration = 13.999999018839848
    CPU time for vxc      0.85 sec, wall time      0.02 sec
E1 = -182.27808983798627  Ecoul = 69.16871060652832  Exc = -13.276899118341232
cycle= 2 E= -109.099822793079  delta_E= -0.0106  |g|= 0.134  |ddm|= 0.376
    CPU time for cycle= 2      1.06 sec, wall time      0.02 sec
  HOMO = -0.384211525853034  LUMO = -0.14441251462162
  mo_energy =
[-14.556362 -14.556303  -0.943416  -0.650225  -0.416154  -0.384212  -0.384212  -0.144413  -0.144413   0.116016   0.531919   0.64009    0.685097   0.685097
   0.775296   0.775296   0.784235   0.876493   1.798936   1.798936   2.017433   2.017434   2.033907   2.148879   2.14888    2.521805   2.521805   3.073887]
nelec by numeric integration = 13.99999904571777
    CPU time for vxc      0.89 sec, wall time      0.02 sec
E1 = -181.77597003289472  Ecoul = 68.59029453250668  Exc = -13.205366005988086
cycle= 3 E= -109.104585949656  delta_E= -0.00476  |g|= 0.0033  |ddm|= 0.144
    CPU time for cycle= 3      1.13 sec, wall time      0.02 sec
  HOMO = -0.385334909404392  LUMO = -0.145545809763825
  mo_energy =
[-14.559755 -14.559695  -0.944662  -0.651383  -0.417623  -0.385335  -0.385335  -0.145546  -0.145546   0.114753   0.531237   0.639265   0.684235   0.684235
   0.774482   0.774482   0.783335   0.875797   1.797796   1.797796   2.016352   2.016352   2.032685   2.147799   2.1478     2.520676   2.520676   3.072693]
nelec by numeric integration = 13.999999045120234
    CPU time for vxc      0.82 sec, wall time      0.02 sec
E1 = -181.78807326605232  Ecoul = 68.60419970093041  Exc = -13.207170938779996
cycle= 4 E= -109.104588947182  delta_E= -3e-06  |g|= 0.000452  |ddm|= 0.00401
    CPU time for cycle= 4      1.00 sec, wall time      0.02 sec
  HOMO = -0.385265910130416  LUMO = -0.145443289232391
  mo_energy =
[-14.559485 -14.559425  -0.94462   -0.651244  -0.417508  -0.385266  -0.385266  -0.145443  -0.145443   0.11485    0.531307   0.639377   0.684304   0.684304
   0.774554   0.774554   0.783385   0.875838   1.79788    1.79788    2.016427   2.016427   2.032786   2.147878   2.147879   2.520774   2.520774   3.072798]
nelec by numeric integration = 13.999999045164271
    CPU time for vxc      0.80 sec, wall time      0.02 sec
E1 = -181.78707474163107  Ecoul = 68.60302475906147  Exc = -13.206994563828438
cycle= 5 E= -109.104588989678  delta_E= -4.25e-08  |g|= 4.49e-05  |ddm|= 0.00052
    CPU time for cycle= 5      0.99 sec, wall time      0.02 sec
  HOMO = -0.385281589252073  LUMO = -0.145459702435854
  mo_energy =
[-14.559523 -14.559463  -0.944638  -0.651256  -0.417523  -0.385282  -0.385282  -0.14546   -0.14546    0.114834   0.531296   0.639367   0.684288   0.684288
   0.774541   0.774541   0.783372   0.875827   1.797864   1.797864   2.016408   2.016409   2.032769   2.14786    2.147861   2.520757   2.520757   3.072782]
nelec by numeric integration = 13.999999045156427
    CPU time for vxc      0.80 sec, wall time      0.02 sec
E1 = -181.78722999010913  Ecoul = 68.60320169343954  Exc = -13.20701625026822
cycle= 6 E= -109.104588990218  delta_E= -5.4e-10  |g|= 3.76e-07  |ddm|= 4.24e-05
    CPU time for cycle= 6      0.98 sec, wall time      0.02 sec
  HOMO = -0.385281720017112  LUMO = -0.145459848655352
  mo_energy =
[-14.559523 -14.559463  -0.944638  -0.651257  -0.417524  -0.385282  -0.385282  -0.14546   -0.14546    0.114834   0.531296   0.639367   0.684288   0.684288
   0.774541   0.774541   0.783372   0.875827   1.797863   1.797863   2.016408   2.016409   2.032769   2.14786    2.147861   2.520757   2.520757   3.072782]
nelec by numeric integration = 13.999999045156365
    CPU time for vxc      0.81 sec, wall time      0.02 sec
E1 = -181.7872314919084  Ecoul = 68.60320341606418  Exc = -13.207016471093748
Extra cycle  E= -109.104588990218  delta_E= -1.71e-13  |g|= 1.54e-07  |ddm|= 5.27e-07
    CPU time for scf_cycle     10.39 sec, wall time      0.25 sec
    CPU time for SCF     10.40 sec, wall time      0.25 sec
converged SCF energy = -109.104588990218
             #0      #1      #2      #3      #4      #5     
  0 N 1s       0.700   0.700   0.204  -0.221                
  0 N 2s                       0.433  -0.485   0.137        
  0 N 3s                       0.199  -0.355   0.205        
  0 N 2px                                              0.360
  0 N 2py                                              0.247
  0 N 2pz                     -0.144  -0.116   0.456        
  0 N 3px                                             -0.249
  0 N 3py                                             -0.171
  0 N 3pz                                     -0.248        
  1 N 1s      -0.700   0.700   0.204   0.221                
  1 N 2s                       0.433   0.485   0.137        
  1 N 3s                       0.199   0.355   0.205        
  1 N 2px                                              0.360
  1 N 2py                                              0.247
  1 N 2pz                      0.144  -0.116  -0.456        
  1 N 3px                                             -0.249
  1 N 3py                                             -0.171
  1 N 3pz                                      0.248        
             #6      #7      #8      #9      #10     #11    
  0 N 1s                               0.115   0.213   0.156
  0 N 2s                               0.299   1.149   0.900
  0 N 3s                               0.631  -1.018  -0.997
  0 N 2px     -0.247  -0.436   0.237                        
  0 N 2py      0.360  -0.237  -0.436                        
  0 N 2pz                             -0.520   0.114   0.478
  0 N 3px      0.171   0.359  -0.195                        
  0 N 3py     -0.249   0.195   0.359                        
  0 N 3pz                              0.789           0.383
  1 N 1s                              -0.115   0.213  -0.156
  1 N 2s                              -0.299   1.149  -0.900
  1 N 3s                              -0.631  -1.018   0.997
  1 N 2px     -0.247   0.436  -0.237                        
  1 N 2py      0.360   0.237   0.436                        
  1 N 2pz                             -0.520  -0.114   0.478
  1 N 3px      0.171  -0.359   0.195                        
  1 N 3py     -0.249  -0.195  -0.359                        
  1 N 3pz                              0.789           0.383
[-14.559523 -14.559463  -0.944638  -0.651257  -0.417524  -0.385282  -0.385282  -0.14546   -0.14546    0.114834   0.531296   0.639367]
**** checking RHF/RKS internal stability ...
nelec by numeric integration = 13.999999045156361
    CPU time for vxc      0.80 sec, wall time      0.02 sec
tol 0.0001  toloose 0.01
max_cycle 50  max_space 12  max_memory 2000  incore True
davidson 0 1  |r|= 3.95  e= [3.474053]  max|de|= 3.47  lindep= 0.992
davidson 1 2  |r|=  2.8  e= [3.390136]  max|de|= -0.0839  lindep= 0.184
davidson 2 3  |r|= 3.41  e= [2.396851]  max|de|= -0.993  lindep= 0.492
davidson 3 4  |r|= 2.13  e= [1.804921]  max|de|= -0.592  lindep= 0.794
davidson 4 5  |r|= 2.28  e= [1.796449]  max|de|= -0.00847  lindep= 0.19
davidson 5 6  |r|= 1.15  e= [1.626057]  max|de|= -0.17  lindep= 0.282
davidson 6 7  |r|= 1.64  e= [1.563872]  max|de|= -0.0622  lindep= 0.247
davidson 7 8  |r|= 0.848  e= [1.462777]  max|de|= -0.101  lindep= 0.378
davidson 8 9  |r|= 0.356  e= [1.357763]  max|de|= -0.105  lindep= 0.45
davidson 9 10  |r|= 1.22  e= [0.901981]  max|de|= -0.456  lindep= 0.45
Large |r| detected, restore to previous x0
davidson 10 1  |r|= 0.356  e= [1.357763]  max|de|= 0.456  lindep= 0.985
davidson 11 2  |r|= 1.59  e= [1.011096]  max|de|= -0.347  lindep= 0.985
Large |r| detected, restore to previous x0
davidson 12 1  |r|= 0.356  e= [1.357763]  max|de|= 0.347  lindep= 0.985
davidson 13 2  |r|= 1.59  e= [1.011096]  max|de|= -0.347  lindep= 0.985
Large |r| detected, restore to previous x0
davidson 14 1  |r|= 0.356  e= [1.357763]  max|de|= 0.347  lindep= 0.985
davidson 15 2  |r|= 1.59  e= [1.011096]  max|de|= -0.347  lindep= 0.985
Large |r| detected, restore to previous x0
davidson 16 1  |r|= 0.356  e= [1.357763]  max|de|= 0.347  lindep= 0.985
davidson 17 2  |r|= 1.59  e= [1.011096]  max|de|= -0.347  lindep= 0.985
Large |r| detected, restore to previous x0
davidson 18 1  |r|= 0.356  e= [1.357763]  max|de|= 0.347  lindep= 0.985
davidson 19 2  |r|= 1.59  e= [1.011096]  max|de|= -0.347  lindep= 0.985
Large |r| detected, restore to previous x0
davidson 20 1  |r|= 0.356  e= [1.357763]  max|de|= 0.347  lindep= 0.985
davidson 21 2  |r|= 1.59  e= [1.011096]  max|de|= -0.347  lindep= 0.985
Large |r| detected, restore to previous x0
davidson 22 1  |r|= 0.356  e= [1.357763]  max|de|= 0.347  lindep= 0.985
davidson 23 2  |r|= 1.59  e= [1.011096]  max|de|= -0.347  lindep= 0.985
Large |r| detected, restore to previous x0
davidson 24 1  |r|= 0.356  e= [1.357763]  max|de|= 0.347  lindep= 0.985
davidson 25 2  |r|= 1.59  e= [1.011096]  max|de|= -0.347  lindep= 0.985
Large |r| detected, restore to previous x0
davidson 26 1  |r|= 0.356  e= [1.357763]  max|de|= 0.347  lindep= 0.985
davidson 27 2  |r|= 1.59  e= [1.011096]  max|de|= -0.347  lindep= 0.985
Large |r| detected, restore to previous x0
davidson 28 1  |r|= 0.356  e= [1.357763]  max|de|= 0.347  lindep= 0.985
davidson 29 2  |r|= 1.59  e= [1.011096]  max|de|= -0.347  lindep= 0.985
Large |r| detected, restore to previous x0
davidson 30 1  |r|= 0.356  e= [1.357763]  max|de|= 0.347  lindep= 0.985
davidson 31 2  |r|= 1.59  e= [1.011096]  max|de|= -0.347  lindep= 0.985
Large |r| detected, restore to previous x0
davidson 32 1  |r|= 0.356  e= [1.357763]  max|de|= 0.347  lindep= 0.985
davidson 33 2  |r|= 1.59  e= [1.011096]  max|de|= -0.347  lindep= 0.985
Large |r| detected, restore to previous x0
davidson 34 1  |r|= 0.356  e= [1.357763]  max|de|= 0.347  lindep= 0.985
davidson 35 2  |r|= 1.59  e= [1.011096]  max|de|= -0.347  lindep= 0.985
Large |r| detected, restore to previous x0
davidson 36 1  |r|= 0.356  e= [1.357763]  max|de|= 0.347  lindep= 0.985
davidson 37 2  |r|= 1.59  e= [1.011096]  max|de|= -0.347  lindep= 0.985
Large |r| detected, restore to previous x0
davidson 38 1  |r|= 0.356  e= [1.357763]  max|de|= 0.347  lindep= 0.985
davidson 39 2  |r|= 1.59  e= [1.011096]  max|de|= -0.347  lindep= 0.985
Large |r| detected, restore to previous x0
davidson 40 1  |r|= 0.356  e= [1.357763]  max|de|= 0.347  lindep= 0.985
davidson 41 2  |r|= 1.59  e= [1.011096]  max|de|= -0.347  lindep= 0.985
Large |r| detected, restore to previous x0
davidson 42 1  |r|= 0.356  e= [1.357763]  max|de|= 0.347  lindep= 0.985
davidson 43 2  |r|= 1.59  e= [1.011096]  max|de|= -0.347  lindep= 0.985
Large |r| detected, restore to previous x0
davidson 44 1  |r|= 0.356  e= [1.357763]  max|de|= 0.347  lindep= 0.985
davidson 45 2  |r|= 1.59  e= [1.011096]  max|de|= -0.347  lindep= 0.985
Large |r| detected, restore to previous x0
davidson 46 1  |r|= 0.356  e= [1.357763]  max|de|= 0.347  lindep= 0.985
davidson 47 2  |r|= 1.59  e= [1.011096]  max|de|= -0.347  lindep= 0.985
Large |r| detected, restore to previous x0
davidson 48 1  |r|= 0.356  e= [1.357763]  max|de|= 0.347  lindep= 0.985
davidson 49 2  |r|= 1.59  e= [1.011096]  max|de|= -0.347  lindep= 0.985
Large |r| detected, restore to previous x0
RHF/RKS wavefunction is stable in the internal stability analysis
             #0      #1      #2      #3      #4      #5     
  0 N 1s       0.700   0.700   0.204  -0.221                
  0 N 2s                       0.433  -0.485   0.137        
  0 N 3s                       0.199  -0.355   0.205        
  0 N 2px                                              0.360
  0 N 2py                                              0.247
  0 N 2pz                     -0.144  -0.116   0.456        
  0 N 3px                                             -0.249
  0 N 3py                                             -0.171
  0 N 3pz                                     -0.248        
  1 N 1s      -0.700   0.700   0.204   0.221                
  1 N 2s                       0.433   0.485   0.137        
  1 N 3s                       0.199   0.355   0.205        
  1 N 2px                                              0.360
  1 N 2py                                              0.247
  1 N 2pz                      0.144  -0.116  -0.456        
  1 N 3px                                             -0.249
  1 N 3py                                             -0.171
  1 N 3pz                                      0.248        
             #6      #7      #8      #9      #10     #11    
  0 N 1s                               0.115   0.213   0.156
  0 N 2s                               0.299   1.149   0.900
  0 N 3s                               0.631  -1.018  -0.997
  0 N 2px     -0.247  -0.436   0.237                        
  0 N 2py      0.360  -0.237  -0.436                        
  0 N 2pz                             -0.520   0.114   0.478
  0 N 3px      0.171   0.359  -0.195                        
  0 N 3py     -0.249   0.195   0.359                        
  0 N 3pz                              0.789           0.383
  1 N 1s                              -0.115   0.213  -0.156
  1 N 2s                              -0.299   1.149  -0.900
  1 N 3s                              -0.631  -1.018   0.997
  1 N 2px     -0.247   0.436  -0.237                        
  1 N 2py      0.360   0.237   0.436                        
  1 N 2pz                             -0.520  -0.114   0.478
  1 N 3px      0.171  -0.359   0.195                        
  1 N 3py     -0.249  -0.195  -0.359                        
  1 N 3pz                              0.789           0.383
[-14.559523 -14.559463  -0.944638  -0.651257  -0.417524  -0.385282  -0.385282  -0.14546   -0.14546    0.114834   0.531296   0.639367]
scan 1.50, -109.104589
#INFO: **** input file is /share/home/srwang/pyAutoMR/examples/guess/N2-RKS.py ****
from pyscf import gto, dft
from automr import guess, dump_mat
import numpy as np
#mf=guess.from_fch_simp("v2.fchk", xc='pbe0')

#mf2.verbose=9
#mf2.stability()
for r in np.arange(1.5, 3.0, 0.1):
    mol = gto.Mole(atom='''N 0.0 0.0 0.0; N 0.0 0.0 %f'''%r, basis='def2-svp', verbose=5).build()
    mf = dft.RKS(mol)
    mf.xc = 'pbe0'
    mf.kernel()
    dump_mat.dump_mo(mol, mf.mo_coeff[:,:12])
    print(mf.mo_energy[:12])
    
    mf2 = guess.check_stab(mf, newton=True, res=True)
    dump_mat.dump_mo(mol, mf2.mo_coeff[:,:12])
    print(mf2.mo_energy[:12])
    print('scan %.2f, %.6f' % (r, mf2.e_tot))
#INFO: ******************** input file end ********************


System: uname_result(system='Linux', node='xc06n05', release='3.10.0-1127.el7.x86_64', version='#1 SMP Tue Feb 18 16:39:12 EST 2020', machine='x86_64', processor='x86_64')  Threads 48
Python 3.7.4 (default, Aug 13 2019, 20:35:49) 
[GCC 7.3.0]
numpy 1.17.2  scipy 1.4.1
Date: Thu Sep 16 17:41:36 2021
PySCF version 1.7.6a1
PySCF path  /share/home/srwang/pyscf/pyscf
GIT ORIG_HEAD 80f71dfe77ac5f9caae26788acf76446987635bd
GIT HEAD      ref: refs/heads/master
GIT master branch  80f71dfe77ac5f9caae26788acf76446987635bd

[ENV] PYSCF_EXT_PATH /share/home/srwang/pyscf_ext/fciqmc:
[CONFIG] conf_file /share/home/srwang/.pyscf_conf.py
[INPUT] verbose = 5
[INPUT] max_memory = 4000 
[INPUT] num. atoms = 2
[INPUT] num. electrons = 14
[INPUT] charge = 0
[INPUT] spin (= nelec alpha-beta = 2S) = 0
[INPUT] symmetry False subgroup None
[INPUT] Mole.unit = angstrom
[INPUT]  1 N      0.000000000000   0.000000000000   0.000000000000 AA    0.000000000000   0.000000000000   0.000000000000 Bohr
[INPUT]  2 N      0.000000000000   0.000000000000   1.600000000000 AA    0.000000000000   0.000000000000   3.023561799304 Bohr
[INPUT] ---------------- BASIS SET ---------------- 
[INPUT] l, kappa, [nprim/nctr], expnt,             c_1 c_2 ...
[INPUT] N
[INPUT] 0    0    [5    /1   ]  1712.8415853      -0.0053934125305
                                257.64812677      -0.040221581118
                                58.458245853      -0.1793114499
                                16.198367905      -0.46376317823
                                5.0052600809      -0.44171422662
[INPUT] 0    0    [1    /1   ]  0.58731856571        1
[INPUT] 0    0    [1    /1   ]  0.18764592253        1
[INPUT] 1    0    [3    /1   ]  13.571470233      -0.040072398852
                                2.9257372874      -0.21807045028
                                0.79927750754     -0.51294466049
[INPUT] 1    0    [1    /1   ]  0.21954348034        1
[INPUT] 2    0    [1    /1   ]  1                    1

nuclear repulsion = 16.206052084425
number of shells = 12
number of NR pGTOs = 48
number of NR cGTOs = 28
basis = def2-svp
ecp = {}
CPU time:        25.05


******** <class 'pyscf.dft.rks.RKS'> ********
method = RKS-RHF
initial guess = minao
damping factor = 0
level_shift factor = 0
DIIS = <class 'pyscf.scf.diis.CDIIS'>
diis_start_cycle = 1
diis_space = 8
SCF conv_tol = 1e-09
SCF conv_tol_grad = None
SCF max_cycles = 50
direct_scf = True
direct_scf_tol = 1e-13
chkfile to save SCF result = /share/home/srwang/pyAutoMR/examples/guess/tmpve_taqx3
max_memory 4000 MB (current use 247 MB)
XC functionals = pbe0
small_rho_cutoff = 1e-07
radial grids: 
    Treutler-Ahlrichs [JCP 102, 346 (1995); DOI:10.1063/1.469408] (M4) radial grids
    
becke partition: Becke, JCP 88, 2547 (1988); DOI:10.1063/1.454033
pruning grids: <function nwchem_prune at 0x2aaf78ea5830>
grids dens level: 3
symmetrized grids: False
atomic radii adjust function: <function treutler_atomic_radii_adjust at 0x2aaf78ea5cb0>
Set gradient conv threshold to 3.16228e-05
atom N rad-grids = 75, ang-grids = [ 50  50  50  50  50  50  50  50  50  50  50  50  50  50  50  50  50  50  50  50  50  50  50  86  86  86  86  86  86  86  86  86 266 266 266 266 266 266 266
 302 302 302 302 302 302 302 302 302 302 302 302 302 302 302 302 302 302 302 266 266 266 266 266 266 266 266 266 266 266 266 266 266 266 266 266]
tot grids = 28092
Drop grids 3880
    CPU time for setting up grids      0.25 sec, wall time      0.01 sec
nelec by numeric integration = 13.992318306688405
    CPU time for vxc      0.82 sec, wall time      0.02 sec
E1 = -180.63452937779363  Ecoul = 68.97666926941137  Exc = -13.242751772699226
init E= -108.694559796656
cond(S) = 91.4174222410485
    CPU time for initialize scf      1.75 sec, wall time      0.04 sec
  HOMO = -0.276865573431526  LUMO = -0.131382072047745
  mo_energy =
[-14.38415  -14.384123  -0.85701   -0.598618  -0.313091  -0.276866  -0.276866  -0.131382  -0.131382   0.092568   0.572763   0.66653    0.733712   0.733712
   0.819449   0.819449   0.875799   0.910832   1.915479   1.915479   1.988429   2.10501    2.105011   2.18852    2.188521   2.472799   2.472799   3.039194]
nelec by numeric integration = 13.999999594851417
    CPU time for vxc      0.82 sec, wall time      0.02 sec
E1 = -178.68643333436444  Ecoul = 66.48347342720335  Exc = -13.027732308696294
cycle= 1 E= -109.024640131432  delta_E= -0.33  |g|= 0.257  |ddm|= 1.57
    CPU time for cycle= 1      1.03 sec, wall time      0.02 sec
  HOMO = -0.416941320022573  LUMO = -0.213545455590695
  mo_energy =
[-14.689679 -14.68962   -0.967093  -0.715139  -0.457096  -0.416941  -0.416941  -0.213545  -0.213545  -0.013828   0.503787   0.601947   0.636508   0.636508
   0.738017   0.738017   0.780814   0.842418   1.804075   1.804075   1.8734     1.991277   1.991278   2.078017   2.078018   2.364354   2.364354   2.929655]
nelec by numeric integration = 13.999999594876877
    CPU time for vxc      0.81 sec, wall time      0.02 sec
E1 = -180.11901387153046  Ecoul = 68.10768839367792  Exc = -13.2308915916475
cycle= 2 E= -109.036164985075  delta_E= -0.0115  |g|= 0.139  |ddm|= 0.405
    CPU time for cycle= 2      0.99 sec, wall time      0.02 sec
  HOMO = -0.368064897552831  LUMO = -0.162721125464407
  mo_energy =
[-14.563968 -14.563917  -0.907917  -0.668256  -0.40751   -0.368065  -0.368065  -0.162721  -0.162721   0.046652   0.53424    0.630774   0.678418   0.678418
   0.773814   0.773814   0.821624   0.873886   1.854864   1.854864   1.927557   2.040391   2.040393   2.127087   2.127088   2.415564   2.415564   2.981795]
nelec by numeric integration = 13.999999592519622
    CPU time for vxc      0.81 sec, wall time      0.02 sec
E1 = -179.60013978623905  Ecoul = 67.50794397919569  Exc = -13.155217358838517
cycle= 3 E= -109.041361081457  delta_E= -0.0052  |g|= 0.0031  |ddm|= 0.152
    CPU time for cycle= 3      0.98 sec, wall time      0.02 sec
  HOMO = -0.369063862090425  LUMO = -0.163704951822151
  mo_energy =
[-14.567003 -14.566952  -0.909018  -0.669257  -0.408776  -0.369064  -0.369064  -0.163705  -0.163705   0.045543   0.533668   0.630119   0.677664   0.677664
   0.773113   0.773113   0.820788   0.873287   1.853892   1.853892   1.926532   2.039448   2.039449   2.126147   2.126149   2.414609   2.414609   2.980801]
nelec by numeric integration = 13.999999592401434
    CPU time for vxc      0.81 sec, wall time      0.02 sec
E1 = -179.61088343691102  Ecoul = 67.52031331430668  Exc = -13.156845636121215
cycle= 4 E= -109.041363674301  delta_E= -2.59e-06  |g|= 0.000339  |ddm|= 0.00363
    CPU time for cycle= 4      0.98 sec, wall time      0.02 sec
  HOMO = -0.369029911737454  LUMO = -0.163648566686549
  mo_energy =
[-14.566843 -14.566791  -0.909008  -0.669172  -0.408711  -0.36903   -0.36903   -0.163649  -0.163649   0.045593   0.53371    0.630192   0.677699   0.677699
   0.773152   0.773152   0.820807   0.873302   1.853934   1.853934   1.926584   2.039485   2.039486   2.126187   2.126188   2.414659   2.414659   2.980855]
nelec by numeric integration = 13.999999592377035
    CPU time for vxc      0.81 sec, wall time      0.02 sec
E1 = -179.61032388646956  Ecoul = 67.51964639419937  Exc = -13.156738288886176
cycle= 5 E= -109.041363696731  delta_E= -2.24e-08  |g|= 3.28e-05  |ddm|= 0.000332
    CPU time for cycle= 5      0.98 sec, wall time      0.02 sec
  HOMO = -0.369041074687002  LUMO = -0.163661127111125
  mo_energy =
[-14.566869 -14.566818  -0.90902   -0.669181  -0.408722  -0.369041  -0.369041  -0.163661  -0.163661   0.04558    0.533701   0.630184   0.677686   0.677686
   0.773141   0.773141   0.820796   0.873294   1.853921   1.853921   1.926571   2.039471   2.039472   2.126172   2.126174   2.414646   2.414646   2.980843]
nelec by numeric integration = 13.999999592376135
    CPU time for vxc      0.80 sec, wall time      0.02 sec
E1 = -179.61043808431677  Ecoul = 67.51977702728345  Exc = -13.156754724420566
cycle= 6 E= -109.041363697029  delta_E= -2.98e-10  |g|= 4.93e-07  |ddm|= 3.18e-05
    CPU time for cycle= 6      0.98 sec, wall time      0.02 sec
  HOMO = -0.369041261588611  LUMO = -0.163661330064631
  mo_energy =
[-14.56687  -14.566819  -0.90902   -0.669181  -0.408723  -0.369041  -0.369041  -0.163661  -0.163661   0.04558    0.533701   0.630184   0.677686   0.677686
   0.773141   0.773141   0.820796   0.873294   1.853921   1.853921   1.926571   2.039471   2.039472   2.126172   2.126174   2.414646   2.414646   2.980843]
nelec by numeric integration = 13.999999592376161
    CPU time for vxc      0.81 sec, wall time      0.02 sec
E1 = -179.61044010974078  Ecoul = 67.51977936143619  Exc = -13.156755033149265
Extra cycle  E= -109.041363697029  delta_E= 2.84e-14  |g|= 2.14e-07  |ddm|= 6.38e-07
    CPU time for scf_cycle      8.66 sec, wall time      0.18 sec
    CPU time for SCF      8.68 sec, wall time      0.18 sec
converged SCF energy = -109.041363697029
             #0      #1      #2      #3      #4      #5     
  0 N 1s      -0.700   0.700   0.205   0.223                
  0 N 2s                       0.437   0.491  -0.133        
  0 N 3s                       0.218   0.342  -0.178        
  0 N 2px                                              0.257
  0 N 2py                                              0.354
  0 N 2pz                     -0.122          -0.454        
  0 N 3px                                             -0.183
  0 N 3py                                             -0.252
  0 N 3pz                                      0.260        
  1 N 1s       0.700   0.700   0.205  -0.223                
  1 N 2s                       0.437  -0.491  -0.133        
  1 N 3s                       0.218  -0.342  -0.178        
  1 N 2px                                              0.257
  1 N 2py                                              0.354
  1 N 2pz                      0.122           0.454        
  1 N 3px                                             -0.183
  1 N 3py                                             -0.252
  1 N 3pz                                     -0.260        
             #6      #7      #8      #9      #10     #11    
  0 N 1s                               0.100   0.214  -0.160
  0 N 2s                               0.260   1.138  -0.902
  0 N 3s                               0.422  -1.026   0.944
  0 N 2px      0.354   0.340   0.359                        
  0 N 2py     -0.257   0.359  -0.340                        
  0 N 2pz                             -0.527   0.126  -0.463
  0 N 3px     -0.252  -0.269  -0.284                        
  0 N 3py      0.183  -0.284   0.269                        
  0 N 3pz                              0.649   0.147  -0.423
  1 N 1s                              -0.100   0.214   0.160
  1 N 2s                              -0.260   1.138   0.902
  1 N 3s                              -0.422  -1.026  -0.944
  1 N 2px      0.354  -0.340  -0.359                        
  1 N 2py     -0.257  -0.359   0.340                        
  1 N 2pz                             -0.527  -0.126  -0.463
  1 N 3px     -0.252   0.269   0.284                        
  1 N 3py      0.183   0.284  -0.269                        
  1 N 3pz                              0.649  -0.147  -0.423
[-14.56687  -14.566819  -0.90902   -0.669181  -0.408723  -0.369041  -0.369041  -0.163661  -0.163661   0.04558    0.533701   0.630184]
**** checking RHF/RKS internal stability ...
nelec by numeric integration = 13.999999592376161
    CPU time for vxc      0.80 sec, wall time      0.02 sec
tol 0.0001  toloose 0.01
max_cycle 50  max_space 12  max_memory 2000  incore True
davidson 0 1  |r|= 4.44  e= [3.815319]  max|de|= 3.82  lindep= 0.997
davidson 1 2  |r|= 2.92  e= [3.03596]  max|de|= -0.779  lindep= 0.961
davidson 2 3  |r|= 2.78  e= [2.454694]  max|de|= -0.581  lindep= 0.511
davidson 3 4  |r|= 2.62  e= [1.743359]  max|de|= -0.711  lindep= 0.712
davidson 4 5  |r|= 1.61  e= [1.581018]  max|de|= -0.162  lindep= 0.892
davidson 5 6  |r|= 0.681  e= [1.341006]  max|de|= -0.24  lindep= 0.494
davidson 6 7  |r|= 1.58  e= [1.329913]  max|de|= -0.0111  lindep= 0.221
davidson 7 8  |r|= 1.36  e= [0.990661]  max|de|= -0.339  lindep= 0.409
davidson 8 9  |r|= 0.402  e= [0.707263]  max|de|= -0.283  lindep= 0.419
davidson 9 10  |r|= 0.219  e= [0.687017]  max|de|= -0.0202  lindep= 0.513
davidson 10 11  |r|= 0.142  e= [0.676733]  max|de|= -0.0103  lindep= 0.456
davidson 11 12  |r|= 0.278  e= [0.44108]  max|de|= -0.236  lindep= 0.88
davidson 12 1  |r|= 0.278  e= [0.44108]  max|de|= -2.22e-16  lindep= 0.969
davidson 13 2  |r|= 0.0711  e= [0.430942]  max|de|= -0.0101  lindep= 0.995
davidson 14 3  |r|= 0.0604  e= [0.43069]  max|de|= -0.000252  lindep= 0.747
davidson 15 4  |r|= 0.00888  e= [0.430134]  max|de|= -0.000556  lindep= 0.802
root 0 converged  |r|= 0.00949  e= 0.4300654859536799  max|de|= -6.83e-05
converged 16 5  |r|= 0.00949  e= [0.430065]  max|de|= -6.83e-05
RHF/RKS wavefunction is stable in the internal stability analysis
             #0      #1      #2      #3      #4      #5     
  0 N 1s      -0.700   0.700   0.205   0.223                
  0 N 2s                       0.437   0.491  -0.133        
  0 N 3s                       0.218   0.342  -0.178        
  0 N 2px                                              0.257
  0 N 2py                                              0.354
  0 N 2pz                     -0.122          -0.454        
  0 N 3px                                             -0.183
  0 N 3py                                             -0.252
  0 N 3pz                                      0.260        
  1 N 1s       0.700   0.700   0.205  -0.223                
  1 N 2s                       0.437  -0.491  -0.133        
  1 N 3s                       0.218  -0.342  -0.178        
  1 N 2px                                              0.257
  1 N 2py                                              0.354
  1 N 2pz                      0.122           0.454        
  1 N 3px                                             -0.183
  1 N 3py                                             -0.252
  1 N 3pz                                     -0.260        
             #6      #7      #8      #9      #10     #11    
  0 N 1s                               0.100   0.214  -0.160
  0 N 2s                               0.260   1.138  -0.902
  0 N 3s                               0.422  -1.026   0.944
  0 N 2px      0.354   0.340   0.359                        
  0 N 2py     -0.257   0.359  -0.340                        
  0 N 2pz                             -0.527   0.126  -0.463
  0 N 3px     -0.252  -0.269  -0.284                        
  0 N 3py      0.183  -0.284   0.269                        
  0 N 3pz                              0.649   0.147  -0.423
  1 N 1s                              -0.100   0.214   0.160
  1 N 2s                              -0.260   1.138   0.902
  1 N 3s                              -0.422  -1.026  -0.944
  1 N 2px      0.354  -0.340  -0.359                        
  1 N 2py     -0.257  -0.359   0.340                        
  1 N 2pz                             -0.527  -0.126  -0.463
  1 N 3px     -0.252   0.269   0.284                        
  1 N 3py      0.183   0.284  -0.269                        
  1 N 3pz                              0.649  -0.147  -0.423
[-14.56687  -14.566819  -0.90902   -0.669181  -0.408723  -0.369041  -0.369041  -0.163661  -0.163661   0.04558    0.533701   0.630184]
scan 1.60, -109.041364
#INFO: **** input file is /share/home/srwang/pyAutoMR/examples/guess/N2-RKS.py ****
from pyscf import gto, dft
from automr import guess, dump_mat
import numpy as np
#mf=guess.from_fch_simp("v2.fchk", xc='pbe0')

#mf2.verbose=9
#mf2.stability()
for r in np.arange(1.5, 3.0, 0.1):
    mol = gto.Mole(atom='''N 0.0 0.0 0.0; N 0.0 0.0 %f'''%r, basis='def2-svp', verbose=5).build()
    mf = dft.RKS(mol)
    mf.xc = 'pbe0'
    mf.kernel()
    dump_mat.dump_mo(mol, mf.mo_coeff[:,:12])
    print(mf.mo_energy[:12])
    
    mf2 = guess.check_stab(mf, newton=True, res=True)
    dump_mat.dump_mo(mol, mf2.mo_coeff[:,:12])
    print(mf2.mo_energy[:12])
    print('scan %.2f, %.6f' % (r, mf2.e_tot))
#INFO: ******************** input file end ********************


System: uname_result(system='Linux', node='xc06n05', release='3.10.0-1127.el7.x86_64', version='#1 SMP Tue Feb 18 16:39:12 EST 2020', machine='x86_64', processor='x86_64')  Threads 48
Python 3.7.4 (default, Aug 13 2019, 20:35:49) 
[GCC 7.3.0]
numpy 1.17.2  scipy 1.4.1
Date: Thu Sep 16 17:41:36 2021
PySCF version 1.7.6a1
PySCF path  /share/home/srwang/pyscf/pyscf
GIT ORIG_HEAD 80f71dfe77ac5f9caae26788acf76446987635bd
GIT HEAD      ref: refs/heads/master
GIT master branch  80f71dfe77ac5f9caae26788acf76446987635bd

[ENV] PYSCF_EXT_PATH /share/home/srwang/pyscf_ext/fciqmc:
[CONFIG] conf_file /share/home/srwang/.pyscf_conf.py
[INPUT] verbose = 5
[INPUT] max_memory = 4000 
[INPUT] num. atoms = 2
[INPUT] num. electrons = 14
[INPUT] charge = 0
[INPUT] spin (= nelec alpha-beta = 2S) = 0
[INPUT] symmetry False subgroup None
[INPUT] Mole.unit = angstrom
[INPUT]  1 N      0.000000000000   0.000000000000   0.000000000000 AA    0.000000000000   0.000000000000   0.000000000000 Bohr
[INPUT]  2 N      0.000000000000   0.000000000000   1.700000000000 AA    0.000000000000   0.000000000000   3.212534411761 Bohr
[INPUT] ---------------- BASIS SET ---------------- 
[INPUT] l, kappa, [nprim/nctr], expnt,             c_1 c_2 ...
[INPUT] N
[INPUT] 0    0    [5    /1   ]  1712.8415853      -0.0053934125305
                                257.64812677      -0.040221581118
                                58.458245853      -0.1793114499
                                16.198367905      -0.46376317823
                                5.0052600809      -0.44171422662
[INPUT] 0    0    [1    /1   ]  0.58731856571        1
[INPUT] 0    0    [1    /1   ]  0.18764592253        1
[INPUT] 1    0    [3    /1   ]  13.571470233      -0.040072398852
                                2.9257372874      -0.21807045028
                                0.79927750754     -0.51294466049
[INPUT] 1    0    [1    /1   ]  0.21954348034        1
[INPUT] 2    0    [1    /1   ]  1                    1

nuclear repulsion = 15.2527549029882
number of shells = 12
number of NR pGTOs = 48
number of NR cGTOs = 28
basis = def2-svp
ecp = {}
CPU time:        41.33


******** <class 'pyscf.dft.rks.RKS'> ********
method = RKS-RHF
initial guess = minao
damping factor = 0
level_shift factor = 0
DIIS = <class 'pyscf.scf.diis.CDIIS'>
diis_start_cycle = 1
diis_space = 8
SCF conv_tol = 1e-09
SCF conv_tol_grad = None
SCF max_cycles = 50
direct_scf = True
direct_scf_tol = 1e-13
chkfile to save SCF result = /share/home/srwang/pyAutoMR/examples/guess/tmp_aor9h3k
max_memory 4000 MB (current use 220 MB)
XC functionals = pbe0
small_rho_cutoff = 1e-07
radial grids: 
    Treutler-Ahlrichs [JCP 102, 346 (1995); DOI:10.1063/1.469408] (M4) radial grids
    
becke partition: Becke, JCP 88, 2547 (1988); DOI:10.1063/1.454033
pruning grids: <function nwchem_prune at 0x2aaf78ea5830>
grids dens level: 3
symmetrized grids: False
atomic radii adjust function: <function treutler_atomic_radii_adjust at 0x2aaf78ea5cb0>
Set gradient conv threshold to 3.16228e-05
atom N rad-grids = 75, ang-grids = [ 50  50  50  50  50  50  50  50  50  50  50  50  50  50  50  50  50  50  50  50  50  50  50  86  86  86  86  86  86  86  86  86 266 266 266 266 266 266 266
 302 302 302 302 302 302 302 302 302 302 302 302 302 302 302 302 302 302 302 266 266 266 266 266 266 266 266 266 266 266 266 266 266 266 266 266]
tot grids = 28092
Drop grids 3854
    CPU time for setting up grids      0.35 sec, wall time      0.01 sec
nelec by numeric integration = 13.992331774489369
    CPU time for vxc      2.24 sec, wall time      0.05 sec
E1 = -178.7571607036877  Ecoul = 68.08336265031225  Exc = -13.211161124225658
init E= -108.632204274613
cond(S) = 68.48824573867579
    CPU time for initialize scf      3.39 sec, wall time      0.07 sec
  HOMO = -0.261934690979948  LUMO = -0.142639957147364
  mo_energy =
[-14.381686 -14.38166   -0.822425  -0.611325  -0.302361  -0.261935  -0.261935  -0.14264   -0.14264    0.040311   0.57557    0.661677   0.728116   0.728116
   0.821537   0.821537   0.908533   0.917021   1.934137   1.976791   1.976791   2.123286   2.123289   2.175735   2.175738   2.387214   2.387214   2.931743]
nelec by numeric integration = 14.00000070519627
    CPU time for vxc      1.00 sec, wall time      0.02 sec
E1 = -176.74621118130966  Ecoul = 65.50892118412553  Exc = -12.981196622487833
cycle= 1 E= -108.965731716684  delta_E= -0.334  |g|= 0.26  |ddm|= 1.56
    CPU time for cycle= 1      1.31 sec, wall time      0.03 sec
  HOMO = -0.403390384271634  LUMO = -0.22901834092612
  mo_energy =
[-14.698907 -14.698878  -0.935335  -0.732716  -0.448764  -0.40339   -0.40339   -0.229018  -0.229018  -0.068549   0.504377   0.593537   0.628234   0.628234
   0.736621   0.736621   0.805358   0.845464   1.817676   1.86266    1.86266    2.007211   2.007214   2.062434   2.062438   2.275525   2.275525   2.818572]
nelec by numeric integration = 14.000000871038775
    CPU time for vxc      0.83 sec, wall time      0.02 sec
E1 = -178.20535458556046  Ecoul = 67.16827046515563  Exc = -13.193462585838725
cycle= 2 E= -108.977791803255  delta_E= -0.0121  |g|= 0.141  |ddm|= 0.426
    CPU time for cycle= 2      1.03 sec, wall time      0.02 sec
  HOMO = -0.354327722123363  LUMO = -0.17727764859717
  mo_energy =
[-14.569304 -14.56928   -0.878386  -0.683861  -0.398032  -0.354328  -0.354328  -0.177278  -0.177278  -0.007994   0.53516    0.623276   0.670819   0.670819
   0.773337   0.773337   0.849165   0.87774    1.870919   1.913444   1.913444   2.056885   2.056889   2.112136   2.11214    2.327022   2.327022   2.870983]
nelec by numeric integration = 14.000000807603357
    CPU time for vxc      0.83 sec, wall time      0.02 sec
E1 = -177.67910154096316  Ecoul = 66.55793449908656  Exc = -13.11483603774353
cycle= 3 E= -108.983248176632  delta_E= -0.00546  |g|= 0.00276  |ddm|= 0.157
    CPU time for cycle= 3      1.01 sec, wall time      0.02 sec
  HOMO = -0.355174621539021  LUMO = -0.178097517529679
  mo_energy =
[-14.571933 -14.571909  -0.879298  -0.68471   -0.399087  -0.355175  -0.355175  -0.178098  -0.178098  -0.008902   0.534699   0.622763   0.670202   0.670202
   0.772761   0.772761   0.84843    0.877244   1.870106   1.912653   1.912653   2.056105   2.056109   2.111361   2.111364   2.326253   2.326253   2.870191]
nelec by numeric integration = 14.000000808438148
    CPU time for vxc      0.97 sec, wall time      0.02 sec
E1 = -177.6883151296397  Ecoul = 66.56858134285939  Exc = -13.116271344260143
cycle= 4 E= -108.983250228052  delta_E= -2.05e-06  |g|= 0.000281  |ddm|= 0.0033
    CPU time for cycle= 4      1.75 sec, wall time      0.04 sec
  HOMO = -0.355156733001375  LUMO = -0.178064141750036
  mo_energy =
[-14.571828 -14.571803  -0.8793    -0.684654  -0.399049  -0.355157  -0.355157  -0.178064  -0.178064  -0.008875   0.534726   0.622815   0.670219   0.670219
   0.772783   0.772783   0.848434   0.877247   1.870133   1.912676   1.912676   2.056125   2.056128   2.111381   2.111384   2.32628    2.32628    2.870219]
nelec by numeric integration = 14.000000808391768
    CPU time for vxc      0.81 sec, wall time      0.02 sec
E1 = -177.68796982451383  Ecoul = 66.56816368921605  Exc = -13.116199010625111
cycle= 5 E= -108.983250242935  delta_E= -1.49e-08  |g|= 2.19e-05  |ddm|= 0.000232
    CPU time for cycle= 5      0.99 sec, wall time      0.02 sec
  HOMO = -0.355163808622909  LUMO = -0.178072884613534
  mo_energy =
[-14.571843 -14.571819  -0.879307  -0.684661  -0.399056  -0.355164  -0.355164  -0.178073  -0.178073  -0.008884   0.534719   0.622808   0.670209   0.670209
   0.772775   0.772775   0.848426   0.87724    1.870124   1.912666   1.912666   2.056114   2.056118   2.111371   2.111374   2.32627    2.32627    2.87021 ]
nelec by numeric integration = 14.000000808398646
    CPU time for vxc      0.81 sec, wall time      0.02 sec
E1 = -177.6880446079641  Ecoul = 66.56824941840674  Exc = -13.11620995650239
cycle= 6 E= -108.983250243071  delta_E= -1.37e-10  |g|= 5.49e-07  |ddm|= 2.12e-05
    CPU time for cycle= 6      1.00 sec, wall time      0.02 sec
  HOMO = -0.355164023857294  LUMO = -0.178073104835225
  mo_energy =
[-14.571844 -14.57182   -0.879307  -0.684661  -0.399056  -0.355164  -0.355164  -0.178073  -0.178073  -0.008884   0.534719   0.622808   0.670209   0.670209
   0.772775   0.772775   0.848426   0.87724    1.870124   1.912666   1.912666   2.056114   2.056117   2.111371   2.111374   2.32627    2.32627    2.87021 ]
nelec by numeric integration = 14.000000808398907
    CPU time for vxc      0.83 sec, wall time      0.02 sec
E1 = -177.68804688655644  Ecoul = 66.56825205331907  Exc = -13.116210312822497
Extra cycle  E= -108.983250243072  delta_E= -1.14e-13  |g|= 2.47e-07  |ddm|= 6.98e-07
    CPU time for scf_cycle     11.48 sec, wall time      0.24 sec
    CPU time for SCF     11.51 sec, wall time      0.24 sec
converged SCF energy = -108.983250243072
             #0      #1      #2      #3      #4      #5     
  0 N 1s       0.700   0.700   0.207  -0.225                
  0 N 2s                       0.441  -0.495   0.127        
  0 N 3s                       0.235  -0.331   0.152        
  0 N 2px                                              0.390
  0 N 2py                                             -0.201
  0 N 2pz                     -0.102           0.451        
  0 N 3px                                             -0.283
  0 N 3py                                              0.146
  0 N 3pz                                     -0.270        
  1 N 1s      -0.700   0.700   0.207   0.225                
  1 N 2s                       0.441   0.495   0.127        
  1 N 3s                       0.235   0.331   0.152        
  1 N 2px                                              0.390
  1 N 2py                                             -0.201
  1 N 2pz                      0.102          -0.451        
  1 N 3px                                             -0.283
  1 N 3py                                              0.146
  1 N 3pz                                      0.270        
             #6      #7      #8      #9      #10     #11    
  0 N 1s                                       0.215   0.164
  0 N 2s                               0.226   1.129   0.914
  0 N 3s                               0.291  -1.031  -0.946
  0 N 2px      0.201   0.207  -0.446                        
  0 N 2py      0.390  -0.446  -0.207                        
  0 N 2pz                             -0.528   0.130   0.447
  0 N 3px     -0.146  -0.159   0.343                        
  0 N 3py     -0.283   0.343   0.159                        
  0 N 3pz                              0.560   0.176   0.423
  1 N 1s                                       0.215  -0.164
  1 N 2s                              -0.226   1.129  -0.914
  1 N 3s                              -0.291  -1.031   0.946
  1 N 2px      0.201  -0.207   0.446                        
  1 N 2py      0.390   0.446   0.207                        
  1 N 2pz                             -0.528  -0.130   0.447
  1 N 3px     -0.146   0.159  -0.343                        
  1 N 3py     -0.283  -0.343  -0.159                        
  1 N 3pz                              0.560  -0.176   0.423
[-14.571844 -14.57182   -0.879307  -0.684661  -0.399056  -0.355164  -0.355164  -0.178073  -0.178073  -0.008884   0.534719   0.622808]
**** checking RHF/RKS internal stability ...
nelec by numeric integration = 14.000000808398907
    CPU time for vxc      0.79 sec, wall time      0.02 sec
tol 0.0001  toloose 0.01
max_cycle 50  max_space 12  max_memory 2000  incore True
davidson 0 1  |r|= 3.63  e= [2.376056]  max|de|= 2.38  lindep= 0.978
davidson 1 2  |r|= 2.87  e= [1.651127]  max|de|= -0.725  lindep= 0.495
davidson 2 3  |r|= 1.73  e= [1.257146]  max|de|= -0.394  lindep= 0.793
davidson 3 4  |r|= 1.44  e= [1.229746]  max|de|= -0.0274  lindep= 0.256
davidson 4 5  |r|= 0.748  e= [0.99478]  max|de|= -0.235  lindep= 0.323
davidson 5 6  |r|= 0.685  e= [0.821654]  max|de|= -0.173  lindep= 0.605
davidson 6 7  |r|= 0.763  e= [0.486427]  max|de|= -0.335  lindep= 0.613
davidson 7 8  |r|= 0.246  e= [0.363371]  max|de|= -0.123  lindep= 0.651
davidson 8 9  |r|= 0.14  e= [0.338172]  max|de|= -0.0252  lindep= 0.856
davidson 9 10  |r|= 0.125  e= [0.326843]  max|de|= -0.0113  lindep= 0.622
davidson 10 11  |r|= 0.0502  e= [0.321928]  max|de|= -0.00491  lindep= 0.767
davidson 11 12  |r|= 0.0129  e= [0.321426]  max|de|= -0.000503  lindep= 0.837
davidson 12 1  |r|= 0.0129  e= [0.321426]  max|de|= -1.33e-15  lindep=    1
root 0 converged  |r|= 0.00476  e= 0.32139844152172325  max|de|= -2.72e-05
converged 13 2  |r|= 0.00476  e= [0.321398]  max|de|= -2.72e-05
RHF/RKS wavefunction is stable in the internal stability analysis
             #0      #1      #2      #3      #4      #5     
  0 N 1s       0.700   0.700   0.207  -0.225                
  0 N 2s                       0.441  -0.495   0.127        
  0 N 3s                       0.235  -0.331   0.152        
  0 N 2px                                              0.390
  0 N 2py                                             -0.201
  0 N 2pz                     -0.102           0.451        
  0 N 3px                                             -0.283
  0 N 3py                                              0.146
  0 N 3pz                                     -0.270        
  1 N 1s      -0.700   0.700   0.207   0.225                
  1 N 2s                       0.441   0.495   0.127        
  1 N 3s                       0.235   0.331   0.152        
  1 N 2px                                              0.390
  1 N 2py                                             -0.201
  1 N 2pz                      0.102          -0.451        
  1 N 3px                                             -0.283
  1 N 3py                                              0.146
  1 N 3pz                                      0.270        
             #6      #7      #8      #9      #10     #11    
  0 N 1s                                       0.215   0.164
  0 N 2s                               0.226   1.129   0.914
  0 N 3s                               0.291  -1.031  -0.946
  0 N 2px      0.201   0.207  -0.446                        
  0 N 2py      0.390  -0.446  -0.207                        
  0 N 2pz                             -0.528   0.130   0.447
  0 N 3px     -0.146  -0.159   0.343                        
  0 N 3py     -0.283   0.343   0.159                        
  0 N 3pz                              0.560   0.176   0.423
  1 N 1s                                       0.215  -0.164
  1 N 2s                              -0.226   1.129  -0.914
  1 N 3s                              -0.291  -1.031   0.946
  1 N 2px      0.201  -0.207   0.446                        
  1 N 2py      0.390   0.446   0.207                        
  1 N 2pz                             -0.528  -0.130   0.447
  1 N 3px     -0.146   0.159  -0.343                        
  1 N 3py     -0.283  -0.343  -0.159                        
  1 N 3pz                              0.560  -0.176   0.423
[-14.571844 -14.57182   -0.879307  -0.684661  -0.399056  -0.355164  -0.355164  -0.178073  -0.178073  -0.008884   0.534719   0.622808]
scan 1.70, -108.983250
#INFO: **** input file is /share/home/srwang/pyAutoMR/examples/guess/N2-RKS.py ****
from pyscf import gto, dft
from automr import guess, dump_mat
import numpy as np
#mf=guess.from_fch_simp("v2.fchk", xc='pbe0')

#mf2.verbose=9
#mf2.stability()
for r in np.arange(1.5, 3.0, 0.1):
    mol = gto.Mole(atom='''N 0.0 0.0 0.0; N 0.0 0.0 %f'''%r, basis='def2-svp', verbose=5).build()
    mf = dft.RKS(mol)
    mf.xc = 'pbe0'
    mf.kernel()
    dump_mat.dump_mo(mol, mf.mo_coeff[:,:12])
    print(mf.mo_energy[:12])
    
    mf2 = guess.check_stab(mf, newton=True, res=True)
    dump_mat.dump_mo(mol, mf2.mo_coeff[:,:12])
    print(mf2.mo_energy[:12])
    print('scan %.2f, %.6f' % (r, mf2.e_tot))
#INFO: ******************** input file end ********************


System: uname_result(system='Linux', node='xc06n05', release='3.10.0-1127.el7.x86_64', version='#1 SMP Tue Feb 18 16:39:12 EST 2020', machine='x86_64', processor='x86_64')  Threads 48
Python 3.7.4 (default, Aug 13 2019, 20:35:49) 
[GCC 7.3.0]
numpy 1.17.2  scipy 1.4.1
Date: Thu Sep 16 17:41:36 2021
PySCF version 1.7.6a1
PySCF path  /share/home/srwang/pyscf/pyscf
GIT ORIG_HEAD 80f71dfe77ac5f9caae26788acf76446987635bd
GIT HEAD      ref: refs/heads/master
GIT master branch  80f71dfe77ac5f9caae26788acf76446987635bd

[ENV] PYSCF_EXT_PATH /share/home/srwang/pyscf_ext/fciqmc:
[CONFIG] conf_file /share/home/srwang/.pyscf_conf.py
[INPUT] verbose = 5
[INPUT] max_memory = 4000 
[INPUT] num. atoms = 2
[INPUT] num. electrons = 14
[INPUT] charge = 0
[INPUT] spin (= nelec alpha-beta = 2S) = 0
[INPUT] symmetry False subgroup None
[INPUT] Mole.unit = angstrom
[INPUT]  1 N      0.000000000000   0.000000000000   0.000000000000 AA    0.000000000000   0.000000000000   0.000000000000 Bohr
[INPUT]  2 N      0.000000000000   0.000000000000   1.800000000000 AA    0.000000000000   0.000000000000   3.401507024217 Bohr
[INPUT] ---------------- BASIS SET ---------------- 
[INPUT] l, kappa, [nprim/nctr], expnt,             c_1 c_2 ...
[INPUT] N
[INPUT] 0    0    [5    /1   ]  1712.8415853      -0.0053934125305
                                257.64812677      -0.040221581118
                                58.458245853      -0.1793114499
                                16.198367905      -0.46376317823
                                5.0052600809      -0.44171422662
[INPUT] 0    0    [1    /1   ]  0.58731856571        1
[INPUT] 0    0    [1    /1   ]  0.18764592253        1
[INPUT] 1    0    [3    /1   ]  13.571470233      -0.040072398852
                                2.9257372874      -0.21807045028
                                0.79927750754     -0.51294466049
[INPUT] 1    0    [1    /1   ]  0.21954348034        1
[INPUT] 2    0    [1    /1   ]  1                    1

nuclear repulsion = 14.4053796306
number of shells = 12
number of NR pGTOs = 48
number of NR cGTOs = 28
basis = def2-svp
ecp = {}
CPU time:        64.34


******** <class 'pyscf.dft.rks.RKS'> ********
method = RKS-RHF
initial guess = minao
damping factor = 0
level_shift factor = 0
DIIS = <class 'pyscf.scf.diis.CDIIS'>
diis_start_cycle = 1
diis_space = 8
SCF conv_tol = 1e-09
SCF conv_tol_grad = None
SCF max_cycles = 50
direct_scf = True
direct_scf_tol = 1e-13
chkfile to save SCF result = /share/home/srwang/pyAutoMR/examples/guess/tmp074bzvkj
max_memory 4000 MB (current use 257 MB)
XC functionals = pbe0
small_rho_cutoff = 1e-07
radial grids: 
    Treutler-Ahlrichs [JCP 102, 346 (1995); DOI:10.1063/1.469408] (M4) radial grids
    
becke partition: Becke, JCP 88, 2547 (1988); DOI:10.1063/1.454033
pruning grids: <function nwchem_prune at 0x2aaf78ea5830>
grids dens level: 3
symmetrized grids: False
atomic radii adjust function: <function treutler_atomic_radii_adjust at 0x2aaf78ea5cb0>
Set gradient conv threshold to 3.16228e-05
atom N rad-grids = 75, ang-grids = [ 50  50  50  50  50  50  50  50  50  50  50  50  50  50  50  50  50  50  50  50  50  50  50  86  86  86  86  86  86  86  86  86 266 266 266 266 266 266 266
 302 302 302 302 302 302 302 302 302 302 302 302 302 302 302 302 302 302 302 266 266 266 266 266 266 266 266 266 266 266 266 266 266 266 266 266]
tot grids = 28092
Drop grids 3830
    CPU time for setting up grids      0.24 sec, wall time      0.01 sec
nelec by numeric integration = 13.992333703848473
    CPU time for vxc      0.80 sec, wall time      0.02 sec
E1 = -177.08057157584298  Ecoul = 67.27598867048282  Exc = -13.186851183740275
init E= -108.5860544585
cond(S) = 52.826617742526345
    CPU time for initialize scf      1.80 sec, wall time      0.04 sec
  HOMO = -0.249996003466726  LUMO = -0.152038917655603
  mo_energy =
[-14.380144 -14.380128  -0.794889  -0.623018  -0.292422  -0.249996  -0.249996  -0.152039  -0.152039  -0.001933   0.576478   0.65742    0.721964   0.721964
   0.823182   0.823182   0.922206   0.927327   1.92699    2.030952   2.030952   2.135542   2.135545   2.167203   2.167206   2.318261   2.318261   2.813414]
nelec by numeric integration = 14.000001868719059
    CPU time for vxc      0.82 sec, wall time      0.02 sec
E1 = -175.03134939140946  Ecoul = 64.65744406381498  Exc = -12.944344538835342
cycle= 1 E= -108.91287023583  delta_E= -0.327  |g|= 0.261  |ddm|= 1.55
    CPU time for cycle= 1      1.10 sec, wall time      0.02 sec
  HOMO = -0.391462736831526  LUMO = -0.240788007906916
  mo_energy =
[-14.704555 -14.704553  -0.908769  -0.747047  -0.438975  -0.391463  -0.391463  -0.240788  -0.240788  -0.110449   0.503644   0.586681   0.621202   0.621202
   0.736026   0.736026   0.813802   0.853266   1.811092   1.91572    1.91572    2.018522   2.018526   2.052621   2.052625   2.205395   2.205395   2.699099]
nelec by numeric integration = 14.000002171223628
    CPU time for vxc      0.81 sec, wall time      0.02 sec
E1 = -176.50118965944222  Ecoul = 66.33407723401243  Exc = -13.163469673435134
cycle= 2 E= -108.925202468265  delta_E= -0.0123  |g|= 0.143  |ddm|= 0.439
    CPU time for cycle= 2      0.99 sec, wall time      0.02 sec
  HOMO = -0.34266651357992  LUMO = -0.188874662974889
  mo_energy =
[-14.572813 -14.57281   -0.854176  -0.697068  -0.388028  -0.342667  -0.342667  -0.188875  -0.188875  -0.050856   0.534635   0.617106   0.663705   0.663705
   0.773224   0.773224   0.859488   0.886154   1.862831   1.96609    1.96609    2.068206   2.06821    2.102353   2.102356   2.25648    2.25648    2.751012]
nelec by numeric integration = 14.000002060961407
    CPU time for vxc      0.81 sec, wall time      0.02 sec
E1 = -175.9723280867386  Ecoul = 65.71865232999224  Exc = -13.082540674951021
cycle= 3 E= -108.930836801097  delta_E= -0.00563  |g|= 0.00233  |ddm|= 0.161
    CPU time for cycle= 3      0.99 sec, wall time      0.02 sec
  HOMO = -0.343343319746894  LUMO = -0.189520937092938
  mo_energy =
[-14.575006 -14.575004  -0.854872  -0.697765  -0.388869  -0.343343  -0.343343  -0.189521  -0.189521  -0.051536   0.534281   0.616706   0.663241   0.663241
   0.772779   0.772779   0.858904   0.885778   1.862228   1.965489   1.965489   2.067605   2.067609   2.101756   2.10176    2.255904   2.255904   2.750427]
nelec by numeric integration = 14.000002062295671
    CPU time for vxc      0.81 sec, wall time      0.02 sec
E1 = -175.9799025287858  Ecoul = 65.72745679949317  Exc = -13.083772212595294
cycle= 4 E= -108.930838311288  delta_E= -1.51e-06  |g|= 0.000293  |ddm|= 0.00302
    CPU time for cycle= 4      0.99 sec, wall time      0.02 sec
  HOMO = -0.343330746245957  LUMO = -0.189494784235985
  mo_energy =
[-14.574918 -14.574916  -0.854878  -0.69772   -0.388841  -0.343331  -0.343331  -0.189495  -0.189495  -0.051517   0.534304   0.616755   0.663252   0.663252
   0.772797   0.772797   0.858901   0.885775   1.862247   1.965505   1.965505   2.06762    2.067623   2.101771   2.101775   2.255924   2.255924   2.750446]
nelec by numeric integration = 14.000002062276671
    CPU time for vxc      0.81 sec, wall time      0.02 sec
E1 = -175.9796212606533  Ecoul = 65.72711218951756  Exc = -13.083708886813126
cycle= 5 E= -108.930838327349  delta_E= -1.61e-08  |g|= 1.41e-05  |ddm|= 0.000206
    CPU time for cycle= 5      0.99 sec, wall time      0.02 sec
  HOMO = -0.34333474874383  LUMO = -0.18950043781229
  mo_energy =
[-14.574925 -14.574923  -0.854883  -0.697723  -0.388846  -0.343335  -0.343335  -0.1895    -0.1895    -0.051523   0.534299   0.61675    0.663245   0.663245
   0.772791   0.772791   0.858895   0.88577    1.862241   1.965498   1.965498   2.067612   2.067616   2.101763   2.101767   2.255917   2.255917   2.750439]
nelec by numeric integration = 14.000002062284327
    CPU time for vxc      0.81 sec, wall time      0.02 sec
E1 = -175.97966454727208  Ecoul = 65.72716156090917  Exc = -13.083714971640779
cycle= 6 E= -108.930838327404  delta_E= -5.48e-11  |g|= 5.32e-07  |ddm|= 1.29e-05
    CPU time for cycle= 6      0.99 sec, wall time      0.02 sec
  HOMO = -0.343334976568413  LUMO = -0.189500650507104
  mo_energy =
[-14.574926 -14.574924  -0.854883  -0.697723  -0.388846  -0.343335  -0.343335  -0.189501  -0.189501  -0.051523   0.534299   0.616749   0.663245   0.663245
   0.772791   0.772791   0.858895   0.88577    1.86224    1.965498   1.965498   2.067612   2.067616   2.101763   2.101767   2.255917   2.255917   2.750439]
nelec by numeric integration = 14.000002062284775
    CPU time for vxc      0.82 sec, wall time      0.02 sec
E1 = -175.97966688968478  Ecoul = 65.72716427244177  Exc = -13.083715340760815
Extra cycle  E= -108.930838327404  delta_E= -1.42e-13  |g|= 2.54e-07  |ddm|= 6.99e-07
    CPU time for scf_cycle      8.83 sec, wall time      0.18 sec
    CPU time for SCF      8.85 sec, wall time      0.18 sec
converged SCF energy = -108.930838327404
             #0      #1      #2      #3      #4      #5     
  0 N 1s       0.701  -0.700   0.208  -0.226                
  0 N 2s                       0.445  -0.497   0.120        
  0 N 3s                       0.248  -0.321   0.128        
  0 N 2px                                              0.424
  0 N 2py                                              0.121
  0 N 2pz                                      0.447        
  0 N 3px                                             -0.312
  0 N 3pz                                     -0.280        
  1 N 1s       0.700   0.700   0.208   0.226                
  1 N 2s                       0.445   0.497   0.120        
  1 N 3s                       0.248   0.321   0.128        
  1 N 2px                                              0.424
  1 N 2py                                              0.121
  1 N 2pz                                     -0.447        
  1 N 3px                                             -0.312
  1 N 3pz                                      0.280        
             #6      #7      #8      #9      #10     #11    
  0 N 1s                                       0.216   0.168
  0 N 2s                              -0.196   1.125   0.931
  0 N 3s                              -0.206  -1.036  -0.966
  0 N 2px     -0.121  -0.389  -0.297                        
  0 N 2py      0.424   0.297  -0.389                        
  0 N 2pz                              0.526   0.125   0.431
  0 N 3px              0.293   0.224                        
  0 N 3py     -0.312  -0.224   0.293                        
  0 N 3pz                             -0.501   0.188   0.408
  1 N 1s                                       0.216  -0.168
  1 N 2s                               0.196   1.125  -0.931
  1 N 3s                               0.206  -1.036   0.966
  1 N 2px     -0.121   0.389   0.297                        
  1 N 2py      0.424  -0.297   0.389                        
  1 N 2pz                              0.526  -0.125   0.431
  1 N 3px             -0.293  -0.224                        
  1 N 3py     -0.312   0.224  -0.293                        
  1 N 3pz                             -0.501  -0.188   0.408
[-14.574926 -14.574924  -0.854883  -0.697723  -0.388846  -0.343335  -0.343335  -0.189501  -0.189501  -0.051523   0.534299   0.616749]
**** checking RHF/RKS internal stability ...
nelec by numeric integration = 14.000002062284771
    CPU time for vxc      0.80 sec, wall time      0.02 sec
tol 0.0001  toloose 0.01
max_cycle 50  max_space 12  max_memory 2000  incore True
davidson 0 1  |r|= 2.89  e= [1.549612]  max|de|= 1.55  lindep= 0.938
davidson 1 2  |r|= 2.34  e= [1.26069]  max|de|= -0.289  lindep= 0.456
davidson 2 3  |r|= 1.54  e= [1.068764]  max|de|= -0.192  lindep= 0.827
davidson 3 4  |r|= 0.306  e= [0.868426]  max|de|= -0.2  lindep= 0.945
davidson 4 5  |r|= 0.396  e= [0.499572]  max|de|= -0.369  lindep= 0.692
davidson 5 6  |r|= 0.253  e= [0.465425]  max|de|= -0.0341  lindep= 0.649
davidson 6 7  |r|= 0.591  e= [0.319444]  max|de|= -0.146  lindep= 0.671
davidson 7 8  |r|= 0.173  e= [0.237627]  max|de|= -0.0818  lindep= 0.92
davidson 8 9  |r|= 0.032  e= [0.232822]  max|de|= -0.0048  lindep= 0.643
davidson 9 10  |r|= 0.0221  e= [0.232184]  max|de|= -0.000638  lindep= 0.714
davidson 10 11  |r|= 0.00752  e= [0.232048]  max|de|= -0.000137  lindep= 0.703
root 0 converged  |r|= 0.00161  e= 0.23203516243279357  max|de|= -1.24e-05
converged 11 12  |r|= 0.00161  e= [0.232035]  max|de|= -1.24e-05
RHF/RKS wavefunction is stable in the internal stability analysis
             #0      #1      #2      #3      #4      #5     
  0 N 1s       0.701  -0.700   0.208  -0.226                
  0 N 2s                       0.445  -0.497   0.120        
  0 N 3s                       0.248  -0.321   0.128        
  0 N 2px                                              0.424
  0 N 2py                                              0.121
  0 N 2pz                                      0.447        
  0 N 3px                                             -0.312
  0 N 3pz                                     -0.280        
  1 N 1s       0.700   0.700   0.208   0.226                
  1 N 2s                       0.445   0.497   0.120        
  1 N 3s                       0.248   0.321   0.128        
  1 N 2px                                              0.424
  1 N 2py                                              0.121
  1 N 2pz                                     -0.447        
  1 N 3px                                             -0.312
  1 N 3pz                                      0.280        
             #6      #7      #8      #9      #10     #11    
  0 N 1s                                       0.216   0.168
  0 N 2s                              -0.196   1.125   0.931
  0 N 3s                              -0.206  -1.036  -0.966
  0 N 2px     -0.121  -0.389  -0.297                        
  0 N 2py      0.424   0.297  -0.389                        
  0 N 2pz                              0.526   0.125   0.431
  0 N 3px              0.293   0.224                        
  0 N 3py     -0.312  -0.224   0.293                        
  0 N 3pz                             -0.501   0.188   0.408
  1 N 1s                                       0.216  -0.168
  1 N 2s                               0.196   1.125  -0.931
  1 N 3s                               0.206  -1.036   0.966
  1 N 2px     -0.121   0.389   0.297                        
  1 N 2py      0.424  -0.297   0.389                        
  1 N 2pz                              0.526  -0.125   0.431
  1 N 3px             -0.293  -0.224                        
  1 N 3py     -0.312   0.224  -0.293                        
  1 N 3pz                             -0.501  -0.188   0.408
[-14.574926 -14.574924  -0.854883  -0.697723  -0.388846  -0.343335  -0.343335  -0.189501  -0.189501  -0.051523   0.534299   0.616749]
scan 1.80, -108.930838
#INFO: **** input file is /share/home/srwang/pyAutoMR/examples/guess/N2-RKS.py ****
from pyscf import gto, dft
from automr import guess, dump_mat
import numpy as np
#mf=guess.from_fch_simp("v2.fchk", xc='pbe0')

#mf2.verbose=9
#mf2.stability()
for r in np.arange(1.5, 3.0, 0.1):
    mol = gto.Mole(atom='''N 0.0 0.0 0.0; N 0.0 0.0 %f'''%r, basis='def2-svp', verbose=5).build()
    mf = dft.RKS(mol)
    mf.xc = 'pbe0'
    mf.kernel()
    dump_mat.dump_mo(mol, mf.mo_coeff[:,:12])
    print(mf.mo_energy[:12])
    
    mf2 = guess.check_stab(mf, newton=True, res=True)
    dump_mat.dump_mo(mol, mf2.mo_coeff[:,:12])
    print(mf2.mo_energy[:12])
    print('scan %.2f, %.6f' % (r, mf2.e_tot))
#INFO: ******************** input file end ********************


System: uname_result(system='Linux', node='xc06n05', release='3.10.0-1127.el7.x86_64', version='#1 SMP Tue Feb 18 16:39:12 EST 2020', machine='x86_64', processor='x86_64')  Threads 48
Python 3.7.4 (default, Aug 13 2019, 20:35:49) 
[GCC 7.3.0]
numpy 1.17.2  scipy 1.4.1
Date: Thu Sep 16 17:41:37 2021
PySCF version 1.7.6a1
PySCF path  /share/home/srwang/pyscf/pyscf
GIT ORIG_HEAD 80f71dfe77ac5f9caae26788acf76446987635bd
GIT HEAD      ref: refs/heads/master
GIT master branch  80f71dfe77ac5f9caae26788acf76446987635bd

[ENV] PYSCF_EXT_PATH /share/home/srwang/pyscf_ext/fciqmc:
[CONFIG] conf_file /share/home/srwang/.pyscf_conf.py
[INPUT] verbose = 5
[INPUT] max_memory = 4000 
[INPUT] num. atoms = 2
[INPUT] num. electrons = 14
[INPUT] charge = 0
[INPUT] spin (= nelec alpha-beta = 2S) = 0
[INPUT] symmetry False subgroup None
[INPUT] Mole.unit = angstrom
[INPUT]  1 N      0.000000000000   0.000000000000   0.000000000000 AA    0.000000000000   0.000000000000   0.000000000000 Bohr
[INPUT]  2 N      0.000000000000   0.000000000000   1.900000000000 AA    0.000000000000   0.000000000000   3.590479636674 Bohr
[INPUT] ---------------- BASIS SET ---------------- 
[INPUT] l, kappa, [nprim/nctr], expnt,             c_1 c_2 ...
[INPUT] N
[INPUT] 0    0    [5    /1   ]  1712.8415853      -0.0053934125305
                                257.64812677      -0.040221581118
                                58.458245853      -0.1793114499
                                16.198367905      -0.46376317823
                                5.0052600809      -0.44171422662
[INPUT] 0    0    [1    /1   ]  0.58731856571        1
[INPUT] 0    0    [1    /1   ]  0.18764592253        1
[INPUT] 1    0    [3    /1   ]  13.571470233      -0.040072398852
                                2.9257372874      -0.21807045028
                                0.79927750754     -0.51294466049
[INPUT] 1    0    [1    /1   ]  0.21954348034        1
[INPUT] 2    0    [1    /1   ]  1                    1

nuclear repulsion = 13.6472017553053
number of shells = 12
number of NR pGTOs = 48
number of NR cGTOs = 28
basis = def2-svp
ecp = {}
CPU time:        79.01


******** <class 'pyscf.dft.rks.RKS'> ********
method = RKS-RHF
initial guess = minao
damping factor = 0
level_shift factor = 0
DIIS = <class 'pyscf.scf.diis.CDIIS'>
diis_start_cycle = 1
diis_space = 8
SCF conv_tol = 1e-09
SCF conv_tol_grad = None
SCF max_cycles = 50
direct_scf = True
direct_scf_tol = 1e-13
chkfile to save SCF result = /share/home/srwang/pyAutoMR/examples/guess/tmpnagnvxen
max_memory 4000 MB (current use 257 MB)
XC functionals = pbe0
small_rho_cutoff = 1e-07
radial grids: 
    Treutler-Ahlrichs [JCP 102, 346 (1995); DOI:10.1063/1.469408] (M4) radial grids
    
becke partition: Becke, JCP 88, 2547 (1988); DOI:10.1063/1.454033
pruning grids: <function nwchem_prune at 0x2aaf78ea5830>
grids dens level: 3
symmetrized grids: False
atomic radii adjust function: <function treutler_atomic_radii_adjust at 0x2aaf78ea5cb0>
Set gradient conv threshold to 3.16228e-05
atom N rad-grids = 75, ang-grids = [ 50  50  50  50  50  50  50  50  50  50  50  50  50  50  50  50  50  50  50  50  50  50  50  86  86  86  86  86  86  86  86  86 266 266 266 266 266 266 266
 302 302 302 302 302 302 302 302 302 302 302 302 302 302 302 302 302 302 302 266 266 266 266 266 266 266 266 266 266 266 266 266 266 266 266 266]
tot grids = 28092
Drop grids 3780
    CPU time for setting up grids      0.24 sec, wall time      0.01 sec
nelec by numeric integration = 13.992326285998406
    CPU time for vxc      0.80 sec, wall time      0.02 sec
E1 = -175.57539666732896  Ecoul = 66.54432997779769  Exc = -13.168313096610664
init E= -108.552178030837
cond(S) = 41.84254192033272
    CPU time for initialize scf      1.71 sec, wall time      0.04 sec
  HOMO = -0.240395822061226  LUMO = -0.15987542968061
  mo_energy =
[-14.379204 -14.379196  -0.773025  -0.633527  -0.283186  -0.240396  -0.240396  -0.159875  -0.159875  -0.03608    0.575605   0.653498   0.716363   0.716363
   0.824107   0.824107   0.915322   0.940548   1.956094   2.073939   2.073939   2.143414   2.143415   2.16179    2.161792   2.265339   2.265339   2.694744]
nelec by numeric integration = 14.000002050563321
    CPU time for vxc      0.82 sec, wall time      0.02 sec
E1 = -173.50454974511507  Ecoul = 63.90677182716572  Exc = -12.915294421398514
cycle= 1 E= -108.865870584043  delta_E= -0.314  |g|= 0.261  |ddm|= 1.55
    CPU time for cycle= 1      1.02 sec, wall time      0.02 sec
  HOMO = -0.381096212382844  LUMO = -0.249781046973967
  mo_energy =
[-14.70755  -14.707535  -0.887023  -0.758524  -0.428378  -0.381096  -0.381096  -0.249781  -0.249781  -0.142746   0.501571   0.580942   0.615935   0.615935
   0.735585   0.735585   0.804683   0.864485   1.841237   1.958601   1.958601   2.0263     2.026302   2.046846   2.046848   2.152487   2.152487   2.580833]
nelec by numeric integration = 14.00000227780744
    CPU time for vxc      0.81 sec, wall time      0.02 sec
E1 = -174.97694746852423  Ecoul = 65.59126348684737  Exc = -13.13982753787673
cycle= 2 E= -108.878309764248  delta_E= -0.0124  |g|= 0.144  |ddm|= 0.448
    CPU time for cycle= 2      0.99 sec, wall time      0.02 sec
  HOMO = -0.332760998572679  LUMO = -0.198135121495803
  mo_energy =
[-14.574811 -14.574791  -0.834523  -0.70804   -0.377849  -0.332761  -0.332761  -0.198135  -0.198135  -0.084557   0.532702   0.611873   0.6579     0.6579
   0.772985   0.772985   0.851059   0.897819   1.891571   2.008379   2.008379   2.075694   2.075696   2.096285   2.096287   2.20284    2.20284    2.631848]
nelec by numeric integration = 14.00000220048854
    CPU time for vxc      0.81 sec, wall time      0.02 sec
E1 = -174.4473759442149  Ecoul = 64.97302010403311  Exc = -13.056944887864837
cycle= 3 E= -108.884098972741  delta_E= -0.00579  |g|= 0.00187  |ddm|= 0.163
    CPU time for cycle= 3      0.99 sec, wall time      0.02 sec
  HOMO = -0.33325414785611  LUMO = -0.198595310398482
  mo_energy =
[-14.576528 -14.576509  -0.834998  -0.70857   -0.378468  -0.333254  -0.333254  -0.198595  -0.198595  -0.084994   0.532458   0.611574   0.657604   0.657604
   0.772684   0.772684   0.850669   0.897583   1.891172   2.007976   2.007976   2.075285   2.075287   2.095879   2.095881   2.202464   2.202464   2.631476]
nelec by numeric integration = 14.000002201051121
    CPU time for vxc      0.81 sec, wall time      0.02 sec
E1 = -174.45317453343768  Ecoul = 64.97981973520405  Exc = -13.057946989630763
cycle= 4 E= -108.884100032559  delta_E= -1.06e-06  |g|= 0.00035  |ddm|= 0.00275
    CPU time for cycle= 4      0.99 sec, wall time      0.02 sec
  HOMO = -0.333244275294255  LUMO = -0.198571157832476
  mo_energy =
[-14.576445 -14.576427  -0.835008  -0.708527  -0.378445  -0.333244  -0.333244  -0.198571  -0.198571  -0.084977   0.53248    0.611628   0.657613   0.657613
   0.7727     0.7727     0.850663   0.897575   1.891189   2.007991   2.007991   2.075299   2.075301   2.095893   2.095895   2.202482   2.202482   2.631491]
nelec by numeric integration = 14.000002201124325
    CPU time for vxc      0.81 sec, wall time      0.02 sec
E1 = -174.45290586983643  Ecoul = 64.97948640859887  Exc = -13.057882349457378
cycle= 5 E= -108.88410005539  delta_E= -2.28e-08  |g|= 1.04e-05  |ddm|= 0.000216
    CPU time for cycle= 5      0.99 sec, wall time      0.02 sec
  HOMO = -0.33324625622555  LUMO = -0.198574818688666
  mo_energy =
[-14.576447 -14.576428  -0.835011  -0.708529  -0.378447  -0.333246  -0.333246  -0.198575  -0.198575  -0.084981   0.532476   0.611624   0.657607   0.657607
   0.772696   0.772696   0.850658   0.897571   1.891184   2.007986   2.007986   2.075293   2.075295   2.095888   2.09589    2.202476   2.202476   2.631486]
nelec by numeric integration = 14.000002201129805
    CPU time for vxc      0.80 sec, wall time      0.02 sec
E1 = -174.4529294029055  Ecoul = 64.97951288162052  Exc = -13.057885289435472
cycle= 6 E= -108.884100055415  delta_E= -2.55e-11  |g|= 4.7e-07  |ddm|= 8.86e-06
    CPU time for cycle= 6      0.99 sec, wall time      0.02 sec
  HOMO = -0.333246484629838  LUMO = -0.198575011246117
  mo_energy =
[-14.576447 -14.576429  -0.835011  -0.708529  -0.378447  -0.333246  -0.333246  -0.198575  -0.198575  -0.084981   0.532476   0.611624   0.657607   0.657607
   0.772696   0.772696   0.850658   0.897571   1.891184   2.007986   2.007986   2.075293   2.075295   2.095888   2.09589    2.202476   2.202476   2.631486]
nelec by numeric integration = 14.000002201130131
    CPU time for vxc      0.82 sec, wall time      0.02 sec
E1 = -174.45293164768145  Ecoul = 64.97951547727358  Exc = -13.057885640312492
Extra cycle  E= -108.884100055415  delta_E= 9.95e-14  |g|= 2.8e-07  |ddm|= 6.5e-07
    CPU time for scf_cycle      8.65 sec, wall time      0.18 sec
    CPU time for SCF      8.67 sec, wall time      0.18 sec
converged SCF energy = -108.884100055415
             #0      #1      #2      #3      #4      #5     
  0 N 1s       0.700   0.700   0.210   0.227                
  0 N 2s                       0.449   0.499  -0.111        
  0 N 3s                       0.259   0.314  -0.107        
  0 N 2px                                              0.350
  0 N 2py                                              0.271
  0 N 2pz                                     -0.444        
  0 N 3px                                             -0.260
  0 N 3py                                             -0.201
  0 N 3pz                                      0.288        
  1 N 1s       0.700  -0.700   0.210  -0.227                
  1 N 2s                       0.449  -0.499  -0.111        
  1 N 3s                       0.259  -0.314  -0.107        
  1 N 2px                                              0.350
  1 N 2py                                              0.271
  1 N 2pz                                      0.444        
  1 N 3px                                             -0.260
  1 N 3py                                             -0.201
  1 N 3pz                                     -0.288        
             #6      #7      #8      #9      #10     #11    
  0 N 1s                                       0.217  -0.172
  0 N 2s                              -0.171   1.124  -0.948
  0 N 3s                              -0.147  -1.041   0.988
  0 N 2px     -0.271   0.367  -0.319                        
  0 N 2py      0.350   0.319   0.367                        
  0 N 2pz                              0.523   0.111  -0.414
  0 N 3px      0.201  -0.273   0.237                        
  0 N 3py     -0.260  -0.237  -0.273                        
  0 N 3pz                             -0.460   0.186  -0.388
  1 N 1s                                       0.217   0.172
  1 N 2s                               0.171   1.124   0.948
  1 N 3s                               0.147  -1.041  -0.988
  1 N 2px     -0.271  -0.367   0.319                        
  1 N 2py      0.350  -0.319  -0.367                        
  1 N 2pz                              0.523  -0.111  -0.414
  1 N 3px      0.201   0.273  -0.237                        
  1 N 3py     -0.260   0.237   0.273                        
  1 N 3pz                             -0.460  -0.186  -0.388
[-14.576447 -14.576429  -0.835011  -0.708529  -0.378447  -0.333246  -0.333246  -0.198575  -0.198575  -0.084981   0.532476   0.611624]
**** checking RHF/RKS internal stability ...
nelec by numeric integration = 14.000002201130131
    CPU time for vxc      0.79 sec, wall time      0.02 sec
tol 0.0001  toloose 0.01
max_cycle 50  max_space 12  max_memory 2000  incore True
davidson 0 1  |r|= 3.53  e= [1.975534]  max|de|= 1.98  lindep= 0.968
davidson 1 2  |r|= 2.15  e= [1.107361]  max|de|= -0.868  lindep= 0.749
davidson 2 3  |r|= 1.27  e= [0.757012]  max|de|= -0.35  lindep= 0.565
davidson 3 4  |r|= 0.462  e= [0.49633]  max|de|= -0.261  lindep= 0.652
davidson 4 5  |r|= 0.42  e= [0.371365]  max|de|= -0.125  lindep= 0.73
davidson 5 6  |r|= 0.419  e= [0.196816]  max|de|= -0.175  lindep= 0.808
davidson 6 7  |r|= 0.0911  e= [0.160295]  max|de|= -0.0365  lindep= 0.777
davidson 7 8  |r|= 0.0236  e= [0.158494]  max|de|= -0.0018  lindep= 0.819
davidson 8 9  |r|= 0.00773  e= [0.158384]  max|de|= -0.00011  lindep= 0.825
root 0 converged  |r|= 0.00123  e= 0.15837306714365612  max|de|= -1.12e-05
[...]
  1 N 2py      0.557          -0.303                        
  1 N 2pz                             -0.484  -0.211  -0.291
  1 N 3px      0.188  -0.170   0.412                        
  1 N 3py     -0.405           0.235                        
  1 N 3pz                              0.355  -0.130  -0.271
[-14.542098 -14.542025  -0.752135  -0.734443  -0.30029   -0.294544  -0.294542  -0.199233  -0.19923   -0.194718   0.483168   0.590558]
scan 2.80, -108.676299
#INFO: **** input file is /share/home/srwang/pyAutoMR/examples/guess/N2-RKS.py ****
from pyscf import gto, dft
from automr import guess, dump_mat
import numpy as np
#mf=guess.from_fch_simp("v2.fchk", xc='pbe0')

#mf2.verbose=9
#mf2.stability()
for r in np.arange(1.5, 3.0, 0.1):
    mol = gto.Mole(atom='''N 0.0 0.0 0.0; N 0.0 0.0 %f'''%r, basis='def2-svp', verbose=5).build()
    mf = dft.RKS(mol)
    mf.xc = 'pbe0'
    mf.kernel()
    dump_mat.dump_mo(mol, mf.mo_coeff[:,:12])
    print(mf.mo_energy[:12])
    
    mf2 = guess.check_stab(mf, newton=True, res=True)
    dump_mat.dump_mo(mol, mf2.mo_coeff[:,:12])
    print(mf2.mo_energy[:12])
    print('scan %.2f, %.6f' % (r, mf2.e_tot))
#INFO: ******************** input file end ********************


System: uname_result(system='Linux', node='xc06n05', release='3.10.0-1127.el7.x86_64', version='#1 SMP Tue Feb 18 16:39:12 EST 2020', machine='x86_64', processor='x86_64')  Threads 48
Python 3.7.4 (default, Aug 13 2019, 20:35:49) 
[GCC 7.3.0]
numpy 1.17.2  scipy 1.4.1
Date: Thu Sep 16 17:41:43 2021
PySCF version 1.7.6a1
PySCF path  /share/home/srwang/pyscf/pyscf
GIT ORIG_HEAD 80f71dfe77ac5f9caae26788acf76446987635bd
GIT HEAD      ref: refs/heads/master
GIT master branch  80f71dfe77ac5f9caae26788acf76446987635bd

[ENV] PYSCF_EXT_PATH /share/home/srwang/pyscf_ext/fciqmc:
[CONFIG] conf_file /share/home/srwang/.pyscf_conf.py
[INPUT] verbose = 5
[INPUT] max_memory = 4000 
[INPUT] num. atoms = 2
[INPUT] num. electrons = 14
[INPUT] charge = 0
[INPUT] spin (= nelec alpha-beta = 2S) = 0
[INPUT] symmetry False subgroup None
[INPUT] Mole.unit = angstrom
[INPUT]  1 N      0.000000000000   0.000000000000   0.000000000000 AA    0.000000000000   0.000000000000   0.000000000000 Bohr
[INPUT]  2 N      0.000000000000   0.000000000000   2.900000000000 AA    0.000000000000   0.000000000000   5.480205761239 Bohr
[INPUT] ---------------- BASIS SET ---------------- 
[INPUT] l, kappa, [nprim/nctr], expnt,             c_1 c_2 ...
[INPUT] N
[INPUT] 0    0    [5    /1   ]  1712.8415853      -0.0053934125305
                                257.64812677      -0.040221581118
                                58.458245853      -0.1793114499
                                16.198367905      -0.46376317823
                                5.0052600809      -0.44171422662
[INPUT] 0    0    [1    /1   ]  0.58731856571        1
[INPUT] 0    0    [1    /1   ]  0.18764592253        1
[INPUT] 1    0    [3    /1   ]  13.571470233      -0.040072398852
                                2.9257372874      -0.21807045028
                                0.79927750754     -0.51294466049
[INPUT] 1    0    [1    /1   ]  0.21954348034        1
[INPUT] 2    0    [1    /1   ]  1                    1

nuclear repulsion = 8.94127011554483
number of shells = 12
number of NR pGTOs = 48
number of NR cGTOs = 28
basis = def2-svp
ecp = {}
CPU time:       385.50


******** <class 'pyscf.dft.rks.RKS'> ********
method = RKS-RHF
initial guess = minao
damping factor = 0
level_shift factor = 0
DIIS = <class 'pyscf.scf.diis.CDIIS'>
diis_start_cycle = 1
diis_space = 8
SCF conv_tol = 1e-09
SCF conv_tol_grad = None
SCF max_cycles = 50
direct_scf = True
direct_scf_tol = 1e-13
chkfile to save SCF result = /share/home/srwang/pyAutoMR/examples/guess/tmpbyb05rv6
max_memory 4000 MB (current use 263 MB)
XC functionals = pbe0
small_rho_cutoff = 1e-07
radial grids: 
    Treutler-Ahlrichs [JCP 102, 346 (1995); DOI:10.1063/1.469408] (M4) radial grids
    
becke partition: Becke, JCP 88, 2547 (1988); DOI:10.1063/1.454033
pruning grids: <function nwchem_prune at 0x2aaf78ea5830>
grids dens level: 3
symmetrized grids: False
atomic radii adjust function: <function treutler_atomic_radii_adjust at 0x2aaf78ea5cb0>
Set gradient conv threshold to 3.16228e-05
atom N rad-grids = 75, ang-grids = [ 50  50  50  50  50  50  50  50  50  50  50  50  50  50  50  50  50  50  50  50  50  50  50  86  86  86  86  86  86  86  86  86 266 266 266 266 266 266 266
 302 302 302 302 302 302 302 302 302 302 302 302 302 302 302 302 302 302 302 266 266 266 266 266 266 266 266 266 266 266 266 266 266 266 266 266]
tot grids = 28092
Drop grids 3534
    CPU time for setting up grids      0.25 sec, wall time      0.01 sec
nelec by numeric integration = 13.992162098101378
    CPU time for vxc      0.81 sec, wall time      0.02 sec
E1 = -166.17910833396255  Ecoul = 61.88754906375383  Exc = -13.11633856422868
init E= -108.466627718893
cond(S) = 12.478155749221127
    CPU time for initialize scf      1.83 sec, wall time      0.04 sec
  HOMO = -0.20373649353441  LUMO = -0.192429863148589
  mo_energy =
[-14.378029 -14.377943  -0.698049  -0.682367  -0.224036  -0.203736  -0.203736  -0.19243   -0.19243   -0.169157   0.516007   0.621278   0.707351   0.724966
   0.724966   0.788559   0.788559   0.970427   2.154682   2.154697   2.154701   2.154716   2.154764   2.154764   2.155113   2.155113   2.157553   2.167039]
nelec by numeric integration = 14.000016090921465
    CPU time for vxc      0.83 sec, wall time      0.02 sec
E1 = -164.16424808050814  Ecoul = 59.43527272860901  Exc = -12.830889029774553
cycle= 1 E= -108.618594266129  delta_E= -0.152  |g|= 0.243  |ddm|= 1.62
    CPU time for cycle= 1      1.09 sec, wall time      0.02 sec
  HOMO = -0.330040158427438  LUMO = -0.27789374371938
  mo_energy =
[-14.68428  -14.684223  -0.808023  -0.793643  -0.347     -0.33004   -0.33004   -0.277894  -0.277894  -0.255948   0.444842   0.551074   0.620507   0.638348
   0.638348   0.703222   0.703222   0.889434   2.046794   2.046808   2.047559   2.047573   2.047966   2.047966   2.049552   2.049552   2.051172   2.062522]
nelec by numeric integration = 14.000010779104592
    CPU time for vxc      0.84 sec, wall time      0.02 sec
E1 = -165.58234707642166  Ecoul = 61.08095865701054  Exc = -13.068767886036252
cycle= 2 E= -108.628886189903  delta_E= -0.0103  |g|= 0.15  |ddm|= 0.447
    CPU time for cycle= 2      1.02 sec, wall time      0.02 sec
  HOMO = -0.285345678525035  LUMO = -0.232012758313684
  mo_energy =
[-14.558419 -14.55836   -0.762442  -0.747111  -0.303839  -0.285346  -0.285346  -0.232013  -0.232013  -0.208669   0.473746   0.580579   0.656563   0.674151
   0.674151   0.738718   0.738718   0.923593   2.091888   2.091902   2.092655   2.092669   2.092844   2.092844   2.094431   2.094431   2.095948   2.107222]
nelec by numeric integration = 14.000012945694543
    CPU time for vxc      1.00 sec, wall time      0.02 sec
E1 = -165.045732490688  Ecoul = 60.44575489731952  Exc = -12.976777856404105
cycle= 3 E= -108.635485334228  delta_E= -0.0066  |g|= 0.000821  |ddm|= 0.17
    CPU time for cycle= 3      1.32 sec, wall time      0.03 sec
  HOMO = -0.285217808870474  LUMO = -0.231833095224783
  mo_energy =
[-14.558145 -14.558085  -0.762337  -0.746984  -0.303704  -0.285218  -0.285218  -0.231833  -0.231833  -0.208374   0.473932   0.580754   0.656792   0.674407
   0.674407   0.738945   0.738945   0.92385    2.092128   2.092142   2.092897   2.092911   2.093075   2.093075   2.094671   2.094671   2.096179   2.107469]
nelec by numeric integration = 14.000012951332042
    CPU time for vxc      0.90 sec, wall time      0.02 sec
E1 = -165.04442654169668  Ecoul = 60.44430156929379  Exc = -12.97663087996245
cycle= 4 E= -108.635485736821  delta_E= -4.03e-07  |g|= 0.000227  |ddm|= 0.00164
    CPU time for cycle= 4      1.08 sec, wall time      0.02 sec
  HOMO = -0.285220204494625  LUMO = -0.231835485769878
  mo_energy =
[-14.558129 -14.558069  -0.762342  -0.746983  -0.303705  -0.28522   -0.28522   -0.231835  -0.231835  -0.208371   0.473901   0.580771   0.656806   0.674399
   0.674399   0.738941   0.738941   0.923825   2.092124   2.092138   2.092893   2.092907   2.09307    2.09307    2.094667   2.094667   2.096174   2.107465]
nelec by numeric integration = 14.000012949698174
    CPU time for vxc      0.82 sec, wall time      0.02 sec
E1 = -165.04441333783416  Ecoul = 60.444276824823376  Exc = -12.976619350004414
cycle= 5 E= -108.63548574747  delta_E= -1.06e-08  |g|= 7.74e-06  |ddm|= 0.000144
    CPU time for cycle= 5      1.00 sec, wall time      0.02 sec
  HOMO = -0.285217630395583  LUMO = -0.231834330229334
  mo_energy =
[-14.558119 -14.55806   -0.76234   -0.746981  -0.303702  -0.285218  -0.285218  -0.231834  -0.231834  -0.208369   0.473901   0.580769   0.656804   0.674397
   0.674397   0.738939   0.738939   0.923825   2.092123   2.092138   2.092892   2.092906   2.09307    2.09307    2.094666   2.094666   2.096174   2.107465]
nelec by numeric integration = 14.000012949786843
    CPU time for vxc      0.82 sec, wall time      0.02 sec
E1 = -165.0443968083847  Ecoul = 60.444257421212995  Exc = -12.976616475525654
cycle= 6 E= -108.635485747153  delta_E= 3.18e-10  |g|= 4.43e-05  |ddm|= 1.87e-05
    CPU time for cycle= 6      1.00 sec, wall time      0.02 sec
  HOMO = -0.28521763226427  LUMO = -0.231834332263689
  mo_energy =
[-14.558119 -14.55806   -0.76234   -0.746981  -0.303702  -0.285218  -0.285218  -0.231834  -0.231834  -0.208369   0.473901   0.580769   0.656804   0.674397
   0.674397   0.738939   0.738939   0.923825   2.092123   2.092138   2.092892   2.092906   2.09307    2.09307    2.094666   2.094666   2.096174   2.107465]
nelec by numeric integration = 14.000012949786788
    CPU time for vxc      0.82 sec, wall time      0.02 sec
E1 = -165.04439682682562  Ecoul = 60.444257441910466  Exc = -12.976616478113733
cycle= 7 E= -108.635485747484  delta_E= -3.32e-10  |g|= 4.27e-06  |ddm|= 1.73e-05
    CPU time for cycle= 7      1.01 sec, wall time      0.02 sec
  HOMO = -0.285217843842584  LUMO = -0.231834505069194
  mo_energy =
[-14.55812  -14.55806   -0.76234   -0.746981  -0.303702  -0.285218  -0.285218  -0.231835  -0.231835  -0.208369   0.473901   0.580769   0.656804   0.674397
   0.674397   0.738939   0.738939   0.923825   2.092123   2.092138   2.092892   2.092906   2.09307    2.09307    2.094666   2.094666   2.096174   2.107465]
nelec by numeric integration = 14.00001294977877
    CPU time for vxc      0.82 sec, wall time      0.02 sec
E1 = -165.0443987864143  Ecoul = 60.44425972370334  Exc = -12.976616795582348
Extra cycle  E= -108.635485742748  delta_E= 4.74e-09  |g|= 0.000167  |ddm|= 6.11e-05
    CPU time for scf_cycle     10.36 sec, wall time      0.22 sec
    CPU time for SCF     10.38 sec, wall time      0.22 sec
converged SCF energy = -108.635485742748
             #0      #1      #2      #3      #4      #5     
  0 N 1s       0.723   0.676   0.219  -0.223                
  0 N 2s                       0.473  -0.487                
  0 N 3s                       0.295  -0.294                
  0 N 2px                                              0.207
  0 N 2py                                              0.408
  0 N 2pz                                      0.441        
  0 N 3px                                             -0.156
  0 N 3py                                             -0.309
  0 N 3pz                                     -0.340        
  1 N 1s      -0.676   0.723   0.219   0.223                
  1 N 2s                       0.473   0.487                
  1 N 3s                       0.295   0.294                
  1 N 2px                                              0.207
  1 N 2py                                              0.408
  1 N 2pz                                     -0.441        
  1 N 3px                                             -0.156
  1 N 3py                                             -0.309
  1 N 3pz                                      0.340        
             #6      #7      #8      #9      #10     #11    
  0 N 1s                                       0.203   0.198
  0 N 2s                                       1.046   1.066
  0 N 3s                                      -1.006  -1.085
  0 N 2px      0.408  -0.468                                
  0 N 2py     -0.207          -0.468                        
  0 N 2pz                              0.484  -0.225   0.276
  0 N 3px     -0.309   0.343                                
  0 N 3py      0.156           0.343                        
  0 N 3pz                             -0.348  -0.154   0.260
  1 N 1s                                       0.203  -0.198
  1 N 2s                                       1.046  -1.066
  1 N 3s                                      -1.006   1.085
  1 N 2px      0.408   0.468                                
  1 N 2py     -0.207           0.468                        
  1 N 2pz                              0.484   0.225   0.276
  1 N 3px     -0.309  -0.343                                
  1 N 3py      0.156          -0.343                        
  1 N 3pz                             -0.348   0.154   0.260
[-14.55812  -14.55806   -0.76234   -0.746981  -0.303702  -0.285218  -0.285218  -0.231835  -0.231835  -0.208369   0.473901   0.580769]
**** checking RHF/RKS internal stability ...
nelec by numeric integration = 14.000012949778766
    CPU time for vxc      0.79 sec, wall time      0.02 sec
tol 0.0001  toloose 0.01
max_cycle 50  max_space 12  max_memory 2000  incore True
davidson 0 1  |r|= 3.11  e= [0.907102]  max|de|= 0.907  lindep= 0.995
davidson 1 2  |r|= 1.04  e= [0.109623]  max|de|= -0.797  lindep= 0.705
davidson 2 3  |r|= 0.267  e= [-0.110425]  max|de|= -0.22  lindep= 0.692
davidson 3 4  |r|= 0.165  e= [-0.140933]  max|de|= -0.0305  lindep= 0.837
davidson 4 5  |r|= 0.0763  e= [-0.148783]  max|de|= -0.00785  lindep= 0.674
davidson 5 6  |r|= 0.0641  e= [-0.152166]  max|de|= -0.00338  lindep= 0.724
davidson 6 7  |r|= 0.0153  e= [-0.152914]  max|de|= -0.000748  lindep= 0.731
root 0 converged  |r|= 0.0059  e= -0.1529803556733109  max|de|= -6.68e-05
converged 7 8  |r|= 0.0059  e= [-0.15298]  max|de|= -6.68e-05
RHF/RKS wavefunction has an internal instability




******** <class 'pyscf.dft.rks.RKS'> ********
method = RKS-RHF
initial guess = minao
damping factor = 0
level_shift factor = 0
DIIS = <class 'pyscf.scf.diis.CDIIS'>
diis_start_cycle = 1
diis_space = 8
SCF conv_tol = 1e-09
SCF conv_tol_grad = None
SCF max_cycles = 50
direct_scf = True
direct_scf_tol = 1e-13
chkfile to save SCF result = /share/home/srwang/pyAutoMR/examples/guess/tmpbyb05rv6
max_memory 4000 MB (current use 263 MB)
XC functionals = pbe0
small_rho_cutoff = 1e-07
radial grids: 
    Treutler-Ahlrichs [JCP 102, 346 (1995); DOI:10.1063/1.469408] (M4) radial grids
    
becke partition: Becke, JCP 88, 2547 (1988); DOI:10.1063/1.454033
pruning grids: <function nwchem_prune at 0x2aaf78ea5830>
grids dens level: 3
symmetrized grids: False
atomic radii adjust function: <function treutler_atomic_radii_adjust at 0x2aaf78ea5cb0>
******** <class 'pyscf.dft.rks.RKS'> Newton solver flags ********
SCF tol = 1e-09
conv_tol_grad = None
max. SCF cycles = 50
direct_scf = True
direct_scf_tol = 1e-13
chkfile to save SCF result = /share/home/srwang/pyAutoMR/examples/guess/tmpbyb05rv6
max_cycle_inner = 12
max_stepsize = 0.05
ah_start_tol = 1e+09
ah_level_shift = 0
ah_conv_tol = 1e-12
ah_lindep = 1e-14
ah_start_cycle = 1
ah_max_cycle = 40
ah_grad_trust_region = 2.5
kf_interval = 4
kf_trust_region = 5
canonicalization = True
max_memory 4000 MB (current use 263 MB)
Set conv_tol_grad to 3.16228e-05
  HOMO = -0.288705569095237  LUMO = -0.195097210140346
Initial guess E= -108.667578328681  |g|= 0.0262575
macro= 0  E= -108.667816679215  delta_E= -0.000238351  |g|= 0.000340613  4 KF 15 JK
macro= 1  E= -108.667816977558  delta_E= -2.98343e-07  |g|= 5.49727e-05  2 KF 11 JK
macro= 2  E= -108.667816977558  delta_E= -1.7053e-13  |g|= 7.66487e-06  1 KF 2 JK
Canonicalize SCF orbitals
macro X = 3  E=-108.667816977558  |g|= 7.66487e-06  total 8 KF 32 JK
converged SCF energy = -108.667816977558
**** checking RHF/RKS internal stability ...
nelec by numeric integration = 14.000012723588753
    CPU time for vxc      0.81 sec, wall time      0.02 sec
tol 0.0001  toloose 0.01
max_cycle 50  max_space 12  max_memory 2000  incore True
davidson 0 1  |r|= 1.65  e= [0.498365]  max|de|= 0.498  lindep= 0.963
davidson 1 2  |r|= 1.33  e= [0.287117]  max|de|= -0.211  lindep= 0.444
davidson 2 3  |r|= 0.19  e= [0.051226]  max|de|= -0.236  lindep= 0.799
davidson 3 4  |r|= 0.218  e= [0.019896]  max|de|= -0.0313  lindep= 0.709
davidson 4 5  |r|= 0.0767  e= [0.00715]  max|de|= -0.0127  lindep= 0.829
davidson 5 6  |r|= 0.045  e= [0.005064]  max|de|= -0.00209  lindep= 0.608
davidson 6 7  |r|= 0.0341  e= [0.003792]  max|de|= -0.00127  lindep= 0.886
davidson 7 8  |r|= 0.026  e= [0.003203]  max|de|= -0.000589  lindep= 0.586
davidson 8 9  |r|= 0.0331  e= [0.002469]  max|de|= -0.000734  lindep= 0.911
davidson 9 10  |r|= 0.0246  e= [0.001881]  max|de|= -0.000589  lindep= 0.649
davidson 10 11  |r|= 0.0491  e= [0.000615]  max|de|= -0.00127  lindep= 0.763
davidson 11 12  |r|= 0.0175  e= [0.000139]  max|de|= -0.000475  lindep= 0.882
davidson 12 1  |r|= 0.0175  e= [0.000139]  max|de|= 8.84e-16  lindep= 0.999
root 0 converged  |r|= 0.00431  e= 0.00010155500416803366  max|de|= -3.76e-05
converged 13 2  |r|= 0.00431  e= [0.000102]  max|de|= -3.76e-05
RHF/RKS wavefunction is stable in the internal stability analysis
             #0      #1      #2      #3      #4      #5     
  0 N 1s       0.693   0.708   0.218   0.222                
  0 N 2s                       0.470   0.482                
  0 N 3s                       0.299   0.299                
  0 N 2px                                             -0.278
  0 N 2py                                              0.500
  0 N 2pz                                     -0.438        
  0 N 3px                                              0.196
  0 N 3py                                             -0.365
  0 N 3pz                                      0.343        
  1 N 1s      -0.707   0.693   0.218  -0.222                
  1 N 2s                       0.470  -0.482                
  1 N 3s                       0.299  -0.299                
  1 N 2px                                              0.256
  1 N 2py                                              0.210
  1 N 2pz                                      0.438        
  1 N 3px                                             -0.180
  1 N 3py                                             -0.161
  1 N 3pz                                     -0.343        
             #6      #7      #8      #9      #10     #11    
  0 N 1s                                       0.203  -0.199
  0 N 2s                                       1.046  -1.068
  0 N 3s                                      -1.003   1.085
  0 N 2px      0.210           0.461  -0.284                
  0 N 2py     -0.256           0.322  -0.102                
  0 N 2pz              0.482                  -0.229  -0.276
  0 N 3px     -0.161          -0.370   0.219                
  0 N 3py      0.180          -0.251                        
  0 N 3pz             -0.352                  -0.155  -0.259
  1 N 1s                                       0.203   0.199
  1 N 2s                                       1.046   1.068
  1 N 3s                                      -1.003  -1.085
  1 N 2px      0.500           0.102   0.322                
  1 N 2py      0.278          -0.284  -0.461                
  1 N 2pz              0.482                   0.229  -0.276
  1 N 3px     -0.365                  -0.251                
  1 N 3py     -0.196           0.219   0.370                
  1 N 3pz             -0.352                   0.155  -0.259
[-14.540338 -14.540266  -0.749703  -0.735415  -0.29562   -0.293884  -0.293883  -0.199609  -0.198644  -0.198643   0.480552   0.588047]
scan 2.90, -108.667817
