title                                                                   
Stability UPBE1PBE                                                    def2TZVP            
Number of atoms                            I                2
Info1-9                                    I   N=           9
          11          11           0           0           0         110
           7          18       -1302
Charge                                     I                0
Multiplicity                               I                3
Number of electrons                        I               46
Number of alpha electrons                  I               24
Number of beta electrons                   I               22
Number of basis functions                  I               90
Number of independent functions            I               90
Number of point charges in /Mol/           I                0
Number of translation vectors              I                0
Atomic numbers                             I   N=           2
          23          23
Nuclear charges                            R   N=           2
  2.30000000E+01  2.30000000E+01
Current cartesian coordinates              R   N=           6
  0.00000000E+00  0.00000000E+00  1.67240762E+00  2.04810864E-16  0.00000000E+00
 -1.67240762E+00
Force Field                                I                0
Int Atom Types                             I   N=           2
           0           0
MM charges                                 R   N=           2
  2.51973479-322  2.51973479-322
Integer atomic weights                     I   N=           2
           0           0
Real atomic weights                        R   N=           2
  0.00000000E+00  0.00000000E+00
Atom fragment info                         I   N=           2
           0           0
Atom residue num                           I   N=           2
           0           0
Nuclear spins                              I   N=           2
           0           0
Nuclear ZEff                               R   N=           2
  0.00000000E+00  0.00000000E+00
Nuclear QMom                               R   N=           2
  0.00000000E+00  0.00000000E+00
Nuclear GFac                               R   N=           2
  0.00000000E+00  0.00000000E+00
MicOpt                                     I   N=           2
          -1          -1
Number of contracted shells                I               30
Number of primitive shells                 I               72
Pure/Cartesian d shells                    I                0
Pure/Cartesian f shells                    I                0
Highest angular momentum                   I                3
Largest degree of contraction              I                8
Shell types                                I   N=          30
           0           0           0           0           0           0
           1           1           1           1          -2          -2
          -2          -2          -3           0           0           0
           0           0           0           1           1           1
           1          -2          -2          -2          -2          -3
Number of primitives per shell             I   N=          30
           8           4           2           1           1           1
           6           3           1           1           4           1
           1           1           1           8           4           2
           1           1           1           6           3           1
           1           4           1           1           1           1
Shell to atom map                          I   N=          30
           1           1           1           1           1           1
           1           1           1           1           1           1
           1           1           1           2           2           2
           2           2           2           2           2           2
           2           2           2           2           2           2
Primitive exponents                        R   N=          72
  2.32340651E+05  3.48288412E+04  7.92654487E+03  2.24377330E+03  7.30593229E+02
  2.62322196E+02  1.01704038E+02  4.00647846E+01  2.55240150E+02  7.88046470E+01
  1.23405989E+01  5.17420192E+00  7.65138945E+00  1.26397599E+00  5.38617617E-01
  9.27192961E-02  3.49980552E-02  1.18423692E+03  2.80230752E+02  8.96436271E+01
  3.32424113E+01  1.31445145E+01  5.29485341E+00  2.01755869E+01  2.76058652E+00
  1.10089009E+00  4.20133107E-01  1.11248000E-01  4.38611349E+01  1.25160219E+01
  4.33138550E+00  1.61388558E+00  5.87495740E-01  1.95157230E-01  6.50000000E-02
  8.31000000E-01  2.32340651E+05  3.48288412E+04  7.92654487E+03  2.24377330E+03
  7.30593229E+02  2.62322196E+02  1.01704038E+02  4.00647846E+01  2.55240150E+02
  7.88046470E+01  1.23405989E+01  5.17420192E+00  7.65138945E+00  1.26397599E+00
  5.38617617E-01  9.27192961E-02  3.49980552E-02  1.18423692E+03  2.80230752E+02
  8.96436271E+01  3.32424113E+01  1.31445145E+01  5.29485341E+00  2.01755869E+01
  2.76058652E+00  1.10089009E+00  4.20133107E-01  1.11248000E-01  4.38611349E+01
  1.25160219E+01  4.33138550E+00  1.61388558E+00  5.87495740E-01  1.95157230E-01
  6.50000000E-02  8.31000000E-01
Contraction coefficients                   R   N=          72
  2.44474023E-04  1.89542187E-03  9.85343449E-03  4.00118445E-02  1.29862963E-01
  3.06895789E-01  4.34483638E-01  2.23718691E-01 -2.42307145E-02 -1.14200300E-01
  5.46617566E-01  5.39977671E-01 -3.75192558E-01  1.17100489E+00  1.00000000E+00
  1.00000000E+00  1.00000000E+00  2.85200151E-03  2.29135210E-02  1.05912013E-01
  2.99208786E-01  4.76099752E-01  2.78324405E-01 -1.93360436E-02  3.80501743E-01
  6.80011699E-01  1.00000000E+00  1.00000000E+00  1.93712082E-02  1.15087471E-01
  3.68257899E-01  6.61805213E-01  1.00000000E+00  1.00000000E+00  1.00000000E+00
  1.00000000E+00  2.44474023E-04  1.89542187E-03  9.85343449E-03  4.00118445E-02
  1.29862963E-01  3.06895789E-01  4.34483638E-01  2.23718691E-01 -2.42307145E-02
 -1.14200300E-01  5.46617566E-01  5.39977671E-01 -3.75192558E-01  1.17100489E+00
  1.00000000E+00  1.00000000E+00  1.00000000E+00  2.85200151E-03  2.29135210E-02
  1.05912013E-01  2.99208786E-01  4.76099752E-01  2.78324405E-01 -1.93360436E-02
  3.80501743E-01  6.80011699E-01  1.00000000E+00  1.00000000E+00  1.93712082E-02
  1.15087471E-01  3.68257899E-01  6.61805213E-01  1.00000000E+00  1.00000000E+00
  1.00000000E+00  1.00000000E+00
Coordinates of each shell                  R   N=          90
  0.00000000E+00  0.00000000E+00  1.67240762E+00  0.00000000E+00  0.00000000E+00
  1.67240762E+00  0.00000000E+00  0.00000000E+00  1.67240762E+00  0.00000000E+00
  0.00000000E+00  1.67240762E+00  0.00000000E+00  0.00000000E+00  1.67240762E+00
  0.00000000E+00  0.00000000E+00  1.67240762E+00  0.00000000E+00  0.00000000E+00
  1.67240762E+00  0.00000000E+00  0.00000000E+00  1.67240762E+00  0.00000000E+00
  0.00000000E+00  1.67240762E+00  0.00000000E+00  0.00000000E+00  1.67240762E+00
  0.00000000E+00  0.00000000E+00  1.67240762E+00  0.00000000E+00  0.00000000E+00
  1.67240762E+00  0.00000000E+00  0.00000000E+00  1.67240762E+00  0.00000000E+00
  0.00000000E+00  1.67240762E+00  0.00000000E+00  0.00000000E+00  1.67240762E+00
  2.04810864E-16  0.00000000E+00 -1.67240762E+00  2.04810864E-16  0.00000000E+00
 -1.67240762E+00  2.04810864E-16  0.00000000E+00 -1.67240762E+00  2.04810864E-16
  0.00000000E+00 -1.67240762E+00  2.04810864E-16  0.00000000E+00 -1.67240762E+00
  2.04810864E-16  0.00000000E+00 -1.67240762E+00  2.04810864E-16  0.00000000E+00
 -1.67240762E+00  2.04810864E-16  0.00000000E+00 -1.67240762E+00  2.04810864E-16
  0.00000000E+00 -1.67240762E+00  2.04810864E-16  0.00000000E+00 -1.67240762E+00
  2.04810864E-16  0.00000000E+00 -1.67240762E+00  2.04810864E-16  0.00000000E+00
 -1.67240762E+00  2.04810864E-16  0.00000000E+00 -1.67240762E+00  2.04810864E-16
  0.00000000E+00 -1.67240762E+00  2.04810864E-16  0.00000000E+00 -1.67240762E+00
Constraint Structure                       R   N=           6
  0.00000000E+00  0.00000000E+00  1.67240762E+00  2.04810864E-16  0.00000000E+00
 -1.67240762E+00
Num ILSW                                   I              100
ILSW                                       I   N=         100
           1           0           0           0           2           1
           0           0           0           0        1009          -1
           5           0           0           0           0           0
           0           0           0           0           0           0
           1           0           0           0           0           0
           0           0      100000           0          -1           0
           0           0           0           0           0           0
           0           0           0           1           0           0
           0 -2000000000           1           0           0           0
           0           1           4          50           0           0
           0           0          13           0           0           0
           0           0           0           2           0           1
           0           0           0           0           0           0
           0           0           0           0           0           0
           0           0           0           0           0           0
           0           0           0           0           0           0
           0           0           0           0
Num RLSW                                   I               50
RLSW                                       R   N=          50
  7.50000000E-01  7.50000000E-01  1.00000000E+00  1.00000000E+00  2.50000000E-01
  0.00000000E+00  0.00000000E+00  1.00000000E+00  0.00000000E+00  0.00000000E+00
  0.00000000E+00  0.00000000E+00  1.00000000E+00  0.00000000E+00  0.00000000E+00
  0.00000000E+00  0.00000000E+00  1.00000000E+00  0.00000000E+00  0.00000000E+00
  0.00000000E+00  0.00000000E+00  1.00000000E+00  0.00000000E+00  0.00000000E+00
  0.00000000E+00  0.00000000E+00  1.00000000E+00  0.00000000E+00  0.00000000E+00
  0.00000000E+00  0.00000000E+00  1.00000000E+00  0.00000000E+00  0.00000000E+00
  0.00000000E+00  0.00000000E+00  0.00000000E+00  1.00000000E+00  1.00000000E+00
  0.00000000E+00  1.00000000E+00  0.00000000E+00  0.00000000E+00  0.00000000E+00
  0.00000000E+00  0.00000000E+00  0.00000000E+00  0.00000000E+00  0.00000000E+00
ECP-MxAtEC                                 I           250000
ECP-MaxLECP                                I               10
ECP-MaxAtL                                 I          2250000
ECP-MxTECP                                 I         11250000
ECP-LenNCZ                                 I                0
ECP-KFirst                                 I   N=          20
           0           0           0           0           0           0
           0           0           0           0           0           0
           0           0           0           0           0           0
           0           0
ECP-KLast                                  I   N=          20
           0           0           0           0           0           0
           0           0           0           0           0           0
           0           0           0           0           0           0
           0           0
ECP-LMax                                   I   N=           2
           0           0
ECP-LPSkip                                 I   N=           2
           1           1
ECP-RNFroz                                 R   N=           2
  0.00000000E+00  0.00000000E+00
ECP-NLP                                    I                0
ECP-CLP1                                   R      0.000000000000000E+00
ECP-CLP2                                   R      0.000000000000000E+00
ECP-ZLP                                    R      0.000000000000000E+00
MxBond                                     I                1
NBond                                      I   N=           2
           1           1
IBond                                      I   N=           2
           2           1
RBond                                      R   N=           2
  3.00000000E+00  3.00000000E+00
Virial Ratio                               R      2.001444185179369E+00
SCF Energy                                 R     -1.887413650904120E+03
Total Energy                               R     -1.887413650904120E+03
S**2                                       R      3.248097133502661E+00
S**2 after annihilation                    R      2.975161660346095E+00
RMS Density                                R      1.229675786127635E-09
External E-field                           R   N=          35
  0.00000000E+00  0.00000000E+00  0.00000000E+00  0.00000000E+00  0.00000000E+00
  0.00000000E+00  0.00000000E+00  0.00000000E+00  0.00000000E+00  0.00000000E+00
  0.00000000E+00  0.00000000E+00  0.00000000E+00  0.00000000E+00  0.00000000E+00
  0.00000000E+00  0.00000000E+00  0.00000000E+00  0.00000000E+00  0.00000000E+00
  0.00000000E+00  0.00000000E+00  0.00000000E+00  0.00000000E+00  0.00000000E+00
  0.00000000E+00  0.00000000E+00  0.00000000E+00  0.00000000E+00  0.00000000E+00
  0.00000000E+00  0.00000000E+00  0.00000000E+00  0.00000000E+00  0.00000000E+00
IOpCl                                      I                1
IROHF                                      I                0
Alpha Orbital Energies                     R   N=          90
 -1.97070596E+02 -1.97035473E+02 -2.22530284E+01 -2.22388621E+01 -1.87270924E+01
 -1.87270924E+01 -1.87253012E+01 -1.87109094E+01 -1.87077281E+01 -1.87077281E+01
 -2.63100035E+00 -2.55482430E+00 -1.71820189E+00 -1.64006011E+00 -1.64006011E+00
 -1.57250949E+00 -1.57250949E+00 -1.52421185E+00 -2.18914741E-01 -2.18208444E-01
 -2.18208444E-01 -1.71410511E-01 -1.68289824E-01 -1.64765114E-01 -6.29251582E-02
 -3.42862771E-03  6.47561912E-03  6.47561912E-03  2.37503035E-02  2.64421124E-02
  2.64421124E-02  3.77971840E-02  4.61078854E-02  1.04570078E-01  1.26552253E-01
  1.26552253E-01  1.32413651E-01  1.33366404E-01  1.37062617E-01  1.78197065E-01
  1.78197065E-01  1.80289526E-01  1.91621203E-01  1.95228005E-01  2.59190791E-01
  3.24238862E-01  3.24238862E-01  4.96014963E-01  6.24510977E-01  6.30850018E-01
  6.94764132E-01  6.94764132E-01  7.20502676E-01  7.27801285E-01  7.32331941E-01
  7.32331941E-01  7.38021577E-01  9.58236709E-01  1.21744898E+00  1.21744898E+00
  1.33189325E+00  1.52332545E+00  1.52332545E+00  1.66234431E+00  1.86973732E+00
  1.92527760E+00  1.92527760E+00  2.04541350E+00  2.05334542E+00  2.10481185E+00
  2.20483020E+00  2.20483020E+00  2.28652377E+00  2.28652377E+00  2.42056318E+00
  2.46051071E+00  2.46582639E+00  2.47077549E+00  2.48215129E+00  2.49953385E+00
  2.49953385E+00  2.53406606E+00  2.53406606E+00  2.54030997E+00  2.55834442E+00
  2.65172306E+00  2.69510682E+00  3.14177168E+00  3.14177168E+00  4.38180207E+00
Beta Orbital Energies                      R   N=          90
 -1.97070475E+02 -1.97034860E+02 -2.22693100E+01 -2.22039698E+01 -1.87433150E+01
 -1.87433150E+01 -1.87341474E+01 -1.86861965E+01 -1.86760467E+01 -1.86760467E+01
 -2.62553002E+00 -2.49518907E+00 -1.68867418E+00 -1.64020174E+00 -1.64020174E+00
 -1.49758244E+00 -1.49758244E+00 -1.48874383E+00 -2.14269478E-01 -2.14269478E-01
 -1.95764017E-01 -1.76477637E-01 -6.52759255E-02 -3.90366984E-02 -3.55657081E-02
  9.14127494E-03  9.14127494E-03  5.33007871E-02  5.33007871E-02  5.96903095E-02
  7.43883699E-02  7.45173411E-02  8.61586665E-02  1.14184858E-01  1.37317994E-01
  1.37317994E-01  1.42556366E-01  1.50695962E-01  1.58107844E-01  1.90945768E-01
  1.90945768E-01  2.05742048E-01  2.05944837E-01  2.08804657E-01  2.78263545E-01
  3.36450592E-01  3.36450592E-01  5.22107533E-01  6.28655347E-01  6.52506134E-01
  6.98876040E-01  6.98876040E-01  7.46935705E-01  7.53407539E-01  7.53407539E-01
  7.54351870E-01  7.60847846E-01  9.89062842E-01  1.23566496E+00  1.23566496E+00
  1.36075830E+00  1.54692169E+00  1.54692169E+00  1.68080750E+00  1.90497399E+00
  1.95926101E+00  1.95926101E+00  2.05535746E+00  2.07004206E+00  2.12964431E+00
  2.21275494E+00  2.21275494E+00  2.34047532E+00  2.34047532E+00  2.44776804E+00
  2.46795607E+00  2.48220813E+00  2.49298972E+00  2.49400345E+00  2.49400345E+00
  2.50380975E+00  2.57560684E+00  2.57560684E+00  2.59293518E+00  2.59699912E+00
  2.69019835E+00  2.74354549E+00  3.16428345E+00  3.16428345E+00  4.41152628E+00
Alpha MO coefficients                      R   N=        8100
 -1.36709476E-04  1.49416196E-05  1.23436386E-04 -1.03993552E-04  4.89069571E-04
 -7.53611749E-05  5.47851445E-17 -9.76445510E-18  1.93022270E-05 -2.18242057E-17
  1.74663360E-17 -1.13792113E-04  5.20555782E-20  2.48895335E-18  2.47792268E-04
  3.23826572E-18 -2.76510823E-17 -1.89468295E-04  4.76478641E-05 -1.02324159E-16
  1.12349306E-16  6.63177918E-16  5.18199752E-17 -1.67784792E-04 -8.17053075E-17
  8.27324619E-17  1.18921180E-15  3.70426568E-17 -1.48215549E-04 -4.92967570E-17
  6.95517394E-17 -2.47751690E-16  3.09350924E-17  6.83781216E-05 -9.61660496E-18
  1.66697343E-17 -5.02188580E-16  1.08069506E-17  1.43832094E-04  4.73359649E-18
 -5.64708714E-18 -1.88349298E-15 -9.10511838E-19 -2.25345276E-19 -3.59407330E-20
  9.97835352E-01  6.76349641E-03 -2.97571107E-03  2.31181300E-03 -9.62175483E-04
  2.21417168E-04 -9.56418171E-17 -3.60874652E-17  3.23511842E-05  1.51546506E-16
  5.59433157E-17 -1.21476315E-04  4.96016810E-17  1.23325785E-17  3.60106857E-04
  2.37545172E-17  1.90249223E-19 -4.08351324E-04 -5.53233368E-05  7.50065123E-17
 -7.99926494E-17  6.85579878E-16  1.97954008E-17  2.11387807E-04  5.70336851E-17
 -6.38908955E-17  7.92773340E-16  1.45337080E-17 -1.25368560E-04  4.55094633E-17
 -3.72195719E-17 -2.51589875E-16  1.28047367E-17 -8.98804989E-05  1.09063403E-17
 -5.71600098E-18 -5.83695648E-16  4.55562409E-18  7.15371457E-05  6.16968198E-18
 -4.71628956E-18  8.65110670E-16  1.19609366E-18 -9.33550319E-19  8.23012367E-20
  9.97835523E-01  6.76364332E-03 -2.97182522E-03  2.30861845E-03 -9.57932477E-04
  2.21042727E-04 -2.85413118E-17 -2.55271585E-19 -3.27029104E-05  8.62305757E-17
 -3.36654455E-17  1.21350020E-04  2.04052477E-17 -2.94623009E-18 -3.59429884E-04
 -1.76455709E-17  2.38125185E-17  4.06065466E-04 -5.44118779E-05  1.35682118E-16
 -1.64803395E-16  6.47262874E-16 -9.49782714E-17  2.10162634E-04  1.03614735E-16
 -1.25606310E-16  6.63347280E-16 -6.79003334E-17 -1.24522895E-04  7.48338741E-17
 -9.12240858E-17 -2.94293295E-16 -5.67104923E-17 -8.96980958E-05  1.64565004E-17
 -2.05296390E-17 -6.18540275E-16 -1.98103210E-17 -7.12504662E-05 -6.36829847E-18
  7.34277254E-18 -8.60600319E-16  1.67794473E-18  1.02439182E-19  5.70915191E-20
  1.48936929E-04  1.68262164E-05  1.22259854E-04 -1.02992208E-04  4.85367840E-04
 -7.51568326E-05 -2.38697089E-17 -8.48870825E-17 -1.92555329E-05 -6.12977487E-17
 -4.73812403E-17  1.13505078E-04 -2.25520977E-17 -6.94014012E-18 -2.47126310E-04
 -1.49098321E-17  1.61118936E-17  1.87346567E-04  4.74784402E-05 -1.00655785E-16
  1.18483593E-16  4.10611308E-16 -3.66418747E-17 -1.67187958E-04 -7.82692153E-17
  9.27656820E-17  1.01016485E-15 -2.68912596E-17 -1.48431026E-04 -5.37171328E-17
  6.36314270E-17 -3.99127134E-16 -2.36802964E-17  6.80958817E-05 -1.11857655E-17
  1.27146843E-17 -5.48752219E-16 -8.42885220E-18 -1.43484987E-04 -6.53925550E-18
  7.90470325E-18  1.87909524E-15 -2.19522805E-18  4.39817738E-19  2.75052007E-20
  5.41037657E-04 -2.05974088E-03 -8.95175982E-04  7.24338284E-04 -2.73397529E-03
  5.75088055E-04 -1.65490600E-15  7.60486257E-16 -1.06294340E-04  4.42628569E-16
 -7.22432188E-17  7.19616762E-04  1.91079425E-16 -3.10745709E-17 -1.67542910E-03
 -1.59893261E-16 -2.35657781E-16  8.31788587E-04 -2.57540835E-04 -1.91903374E-17
  4.78900584E-16  1.56227622E-15  6.65347867E-17  1.05195120E-03 -5.62880287E-17
  3.27707099E-16 -8.36810916E-16  4.75049994E-17  1.17354766E-03  9.64960931E-17
  3.71084851E-16  2.10858001E-15  3.95147866E-17 -4.37657964E-04  3.87032452E-17
  9.86659735E-17 -1.52529335E-15  1.35003787E-17 -8.93054562E-04 -6.74683927E-18
 -3.29881642E-17  9.74708816E-17 -1.08718009E-18  3.73036669E-19 -1.08228949E-19
 -3.08722457E-01  1.03539229E+00  4.70951907E-02 -2.06131931E-02  6.35249384E-03
 -1.68656147E-03 -1.77925338E-15 -8.70798918E-16  3.88972898E-03  3.49468965E-16
  3.17958291E-17  1.14625133E-03  1.17387666E-16 -8.06603854E-18 -2.59627269E-03
  1.68928539E-16  1.11889676E-16  2.42057082E-03  2.90910043E-04  2.30827135E-17
 -3.35718165E-16 -4.11820153E-14  2.11256151E-17 -1.28559216E-03  2.39446795E-18
 -2.81739948E-16  2.03606860E-14  1.55941970E-17  6.75551662E-04  9.54861711E-17
 -9.39483147E-17 -1.05167641E-14  1.38359711E-17  6.42785609E-04  4.49677345E-17
  5.94752011E-18  4.28816862E-15  4.69523416E-18 -4.57231584E-04  1.27901432E-17
 -1.47647353E-17  3.41332118E-16  1.48327357E-18 -1.76044722E-18 -5.46066689E-19
 -3.08545825E-01  1.03505354E+00  4.88946998E-02 -2.16683274E-02  7.24129795E-03
 -1.80480133E-03 -1.80454754E-15  9.19706276E-18 -3.60065964E-03 -2.23286335E-16
 -6.35506836E-17 -1.16178791E-03 -2.46257973E-17 -1.87685241E-17  2.73773670E-03
  1.91326921E-17 -3.28675178E-18 -2.86593005E-03  4.29739190E-04 -2.25293205E-16
  4.87632878E-18 -7.02497097E-15 -2.67537502E-17 -1.49468771E-03 -1.75064666E-16
  3.24546882E-18  4.70357662E-15 -1.91793117E-17  8.41956294E-04 -1.25133008E-16
  2.97108388E-18 -2.55500496E-15 -1.60774466E-17  6.92304876E-04 -2.41913898E-17
  1.04680053E-18  1.02461406E-15 -5.80273714E-18  4.86580851E-04  1.09448175E-17
 -5.74805541E-19 -3.54106845E-16  5.14680939E-19 -1.79236957E-19 -8.27657233E-21
 -6.22127519E-04  1.82293526E-03 -7.77315647E-04  6.96812912E-04 -3.37248035E-03
  6.16647891E-04  2.32952206E-15  2.80893313E-16  1.30132762E-04  8.81421090E-17
  8.16034770E-18 -7.69750817E-04 -3.94333639E-18 -2.48192159E-18  1.78452703E-03
  3.55842722E-17  1.51895002E-18 -1.17809979E-03 -2.81730026E-04  1.64469755E-16
 -3.19830689E-18  1.01490549E-15 -1.26091167E-17  1.14896309E-03  1.25713281E-16
 -3.10992582E-18 -7.60250114E-16 -9.22779580E-18  1.18801556E-03  8.75428522E-17
 -1.23149004E-18  8.55156040E-16 -8.06986437E-18 -4.93403989E-04  2.14551527E-17
  2.52432469E-19 -4.99706432E-16 -3.03251440E-18  9.63856938E-04  9.82653054E-18
 -4.66004913E-19 -6.03065305E-17 -6.69029505E-19 -4.90414993E-19 -9.06586736E-22
  5.44113371E-16 -7.84691911E-16  3.04489384E-15 -3.78526472E-15 -3.66202433E-14
  4.11479456E-15  2.19575580E-05  1.02334613E-03 -2.53455610E-13 -4.87367400E-06
 -2.27140718E-04 -8.65270750E-15  1.35542363E-05  6.31703915E-04  9.19310204E-15
 -3.22967393E-05 -1.50521035E-03  2.23154947E-14  3.13716873E-16  4.00764670E-07
  1.86778957E-05 -1.99302299E-16 -2.13336122E-17 -2.72086752E-15 -2.64929253E-06
 -1.23471985E-04 -1.43082165E-16 -1.36561879E-17 -6.43985418E-15 -8.57683389E-06
 -3.99728870E-04 -1.13071497E-16 -1.51954442E-17 -2.95929393E-15  2.13308011E-05
  9.94135733E-04 -3.79198332E-17 -4.96586332E-18  1.30933166E-15  5.93809669E-06
  2.76748823E-04  2.55204984E-18  6.44722767E-19 -1.05439970E-08  4.91409777E-07
 -4.04936022E-15  1.27420417E-14 -2.44666643E-15  3.80096778E-15  4.19038535E-14
 -7.42713269E-15  2.12531503E-02  9.90516763E-01 -2.86178799E-12  5.64883731E-04
  2.63267703E-02 -7.87978206E-14 -1.63541029E-04 -7.62193506E-03  2.82191308E-14
  6.84619075E-05  3.19071132E-03  1.36135136E-14 -2.13990868E-15  1.20674891E-05
  5.62413105E-04 -4.71739670E-17 -8.95338122E-18  3.05820504E-15 -9.00674444E-06
 -4.19765128E-04 -3.43380226E-17 -1.11350066E-17  5.56202596E-15  3.29734015E-06
  1.53674662E-04 -3.15065600E-17 -6.57493301E-18  2.63290243E-16  1.15955149E-05
  5.40416445E-04 -1.10773913E-17 -2.69638943E-18  1.53014826E-15 -2.48687232E-06
 -1.15902287E-04 -4.13596380E-18 -4.59126135E-19 -1.02282818E-06  4.76695664E-05
  9.67528207E-16 -1.40535289E-15  5.29542827E-15 -6.03058431E-15 -5.97267903E-14
  6.23511847E-15  1.02334613E-03 -2.19575582E-05 -3.87874564E-15 -2.27140718E-04
  4.87367400E-06 -2.75742247E-15  6.31703915E-04 -1.35542363E-05  1.17716844E-14
 -1.50521035E-03  3.22967393E-05  3.85331991E-14  1.91853751E-16  1.86778957E-05
 -4.00764670E-07  2.32686507E-16  1.89435632E-17 -4.46519142E-15 -1.23471985E-04
  2.64929253E-06  1.66952836E-16  1.51958916E-17 -1.08551831E-14 -3.99728870E-04
  8.57683389E-06  1.32482190E-16  9.53459132E-18 -5.39090711E-15  9.94135733E-04
 -2.13308011E-05  4.46846770E-17  4.26736772E-18  2.10344677E-15  2.76748823E-04
 -5.93809669E-06 -3.00743625E-18 -3.15582385E-19 -4.91409777E-07 -1.05439970E-08
 -7.32215595E-15  2.31845474E-14 -4.10510098E-15  6.13758015E-15  7.04236421E-14
 -1.28400750E-14  9.90516763E-01 -2.12531503E-02 -5.18958549E-12  2.63267703E-02
 -5.64883731E-04 -1.41869310E-13 -7.62193506E-03  1.63541029E-04  5.02621282E-14
  3.19071132E-03 -6.84619075E-05  2.10919314E-14 -3.88715237E-15  5.62413105E-04
 -1.20674891E-05  5.86564805E-17  1.47304703E-17  5.07165173E-15 -4.19765128E-04
  9.00674444E-06  3.85619305E-17  1.00925013E-17  9.03414243E-15  1.53674662E-04
 -3.29734015E-06  3.78601747E-17  9.49786078E-18 -3.69481604E-17  5.40416445E-04
 -1.15955149E-05  1.27145593E-17  4.18488136E-18  2.56321620E-15 -1.15902287E-04
  2.48687232E-06  4.81201759E-18  7.63928394E-19 -4.76695664E-05 -1.02282818E-06
 -3.72815648E-05 -1.98664127E-04 -9.46043607E-04  1.22192326E-03  1.14298692E-02
 -1.20708982E-03  4.65403990E-13  7.35397793E-14 -3.03375172E-03  1.14198545E-14
  1.40811273E-15  4.37024987E-04 -6.01975080E-16  1.16629313E-15 -2.20628228E-03
 -6.33312770E-15 -3.96709439E-15 -7.40609606E-03 -3.60153024E-05 -2.89270706E-16
  2.16050993E-16  8.14757747E-16 -1.45469973E-17  8.45966546E-04 -5.77067403E-16
 -1.64863179E-16 -1.71190174E-16 -1.04284470E-17  2.07925293E-03 -2.24702288E-15
 -9.89196942E-16  5.54462027E-16 -8.84927523E-18  1.03409865E-03  4.96768334E-15
  2.73897421E-15 -4.87135037E-16 -3.24989074E-18 -4.01128125E-04  1.40381158E-15
  7.46451721E-16 -5.09346274E-16  3.49946522E-19  4.09200806E-18  1.44388577E-19
  1.32205357E-03 -4.17841974E-03  7.93141811E-04 -1.16317981E-03 -1.35212475E-02
  2.43718950E-03  5.24973972E-12  2.74923039E-12  9.90573527E-01  1.39766220E-13
  7.32709386E-14  2.71088036E-02 -3.99517225E-14 -2.10422868E-14 -9.57886403E-03
  1.61689742E-14  8.73223165E-15 -4.05824395E-03  7.38470323E-04  3.07514595E-15
  1.40979763E-15  1.02592367E-15 -9.65185169E-18 -9.65341508E-04 -2.08897866E-15
 -1.27303080E-15 -4.20637407E-16 -6.98333684E-18 -1.73094229E-03  1.08909027E-15
  3.90336837E-16  6.74366514E-18 -6.05424124E-18  3.30734545E-06  2.36575061E-15
  1.40734530E-15 -4.38312197E-16 -2.29293555E-18 -4.87748684E-04 -4.63961656E-16
 -3.07544901E-16 -1.34650616E-15 -3.84801203E-19 -2.54764932E-16  1.32894021E-16
 -1.23200989E-03  3.84983352E-03 -8.68259982E-04  1.27986454E-03  1.55939837E-02
 -2.73525791E-03  1.01392033E-12  3.74214094E-13  9.90048459E-01  2.87222587E-14
  1.05414555E-14  2.86697521E-02 -8.43743837E-15 -2.93637502E-15 -1.04747493E-02
  3.60372325E-15  1.00268155E-15 -4.86584774E-03 -7.27147391E-04 -5.17847573E-16
 -5.10334137E-16 -4.87051105E-16  4.57564111E-17  1.04393713E-03  4.37067498E-16
 -1.12749101E-16  2.40946702E-17  3.27451900E-17  2.02066836E-03 -1.55524876E-16
 -3.41386793E-16  7.30194283E-17  2.74951979E-17  3.16004416E-05 -6.02533057E-16
 -1.19340332E-17  3.45306461E-16  9.77875359E-18 -5.85075952E-04 -1.41059142E-16
  3.38093499E-17 -1.61695694E-15 -9.01901671E-19  1.54470297E-17 -5.44979151E-18
  5.11637521E-05  1.94108732E-04  1.07682640E-03 -1.37872344E-03 -1.32915019E-02
  1.38362750E-03  2.42328532E-14  2.61246281E-13  2.89328081E-03  4.75598232E-16
  6.85914918E-15  6.91462791E-04  5.77166145E-16 -1.72227166E-15 -2.55818619E-03
 -1.65277336E-15  2.23365081E-16 -8.52938770E-03  6.14174027E-05 -2.43598997E-17
  3.70980712E-16 -9.26907408E-16  2.18498118E-17 -9.72359669E-04  1.14740825E-16
  1.21788356E-16  1.31353143E-16  1.59244706E-17 -2.37027070E-03  4.46206725E-16
  3.25263979E-16 -5.21543819E-16  1.39291891E-17 -1.17755164E-03 -1.12252753E-15
 -2.53780144E-16  5.14043678E-16  5.10280646E-18 -4.78129142E-04  3.08820559E-16
  9.97969165E-17 -5.23648977E-16  1.09216971E-18 -2.55632939E-18  1.34092418E-17
  6.19111314E-16 -1.85807181E-15  7.14709411E-16 -7.77415504E-16 -7.92277105E-15
  1.42200652E-15  1.54164590E-01  9.78048029E-01 -5.26816451E-13  4.37284965E-03
  2.77421487E-02 -1.52388047E-14 -1.28344888E-03 -8.14243171E-03  5.86256100E-15
  5.51773304E-04  3.50054958E-03  2.36779537E-15  3.57040668E-16 -8.22317793E-05
 -5.21693273E-04  1.89554842E-16  2.30883000E-17 -7.33438689E-16  6.47535752E-05
  4.10808387E-04  1.33646409E-16  1.15885676E-17 -1.13128087E-15 -2.27688877E-05
 -1.44449939E-04  1.10335767E-16  1.27783207E-17 -3.80547376E-17 -9.49728728E-05
 -6.02525073E-04  3.70044965E-17  3.94435287E-18  3.60411501E-16 -2.26214446E-05
 -1.43514534E-04 -2.59180131E-18 -5.16850309E-19  2.35870717E-06 -1.49640647E-05
 -5.48213515E-17 -7.84097658E-17 -5.24935769E-16  1.13347635E-15  6.76042937E-15
 -1.09198599E-15 -1.43963073E-04 -9.13327761E-04 -1.42946565E-13 -4.84595864E-05
 -3.07436376E-04 -4.39326526E-15  1.11407697E-04  7.06790570E-04  2.62953823E-15
 -2.60882756E-04 -1.65508736E-03  3.85728016E-15 -1.80504312E-16 -3.65701761E-06
 -2.32007808E-05  4.47292402E-17  1.17650479E-17  6.59452215E-16  2.05580601E-05
  1.30424050E-04  3.35501706E-17  8.57320840E-18  1.22775792E-15  6.96454461E-05
  4.41843300E-04  3.02369102E-17  7.33308225E-18  4.75523652E-16 -1.71879445E-04
 -1.09043427E-03  1.07180714E-17  2.95378278E-18  3.12531035E-16  4.76700307E-05
  3.02427292E-04  3.78900972E-18  5.11381715E-19 -1.27470185E-07  8.08693896E-07
  6.92622257E-16 -1.87605176E-15  1.16434469E-15 -1.99757416E-15 -1.82640566E-14
  3.18120755E-15  9.78048029E-01 -1.54164590E-01 -9.41762286E-13  2.77421487E-02
 -4.37284965E-03 -2.75692331E-14 -8.14243171E-03  1.28344888E-03  1.09120205E-14
  3.50054958E-03 -5.51773304E-04  6.99593729E-15  5.84396206E-16 -5.21693273E-04