#INFO: **** input file is /share/home/srwang/pyAutoMR/examples/33-N2-CASSCF.py ****
from pyscf import lib
#from pyphf import util, guess
import guess, autocas, cidump

lib.num_threads(4)

xyz = 'N 0.0 0.0 0.0; N  0.0 0.0 1.9' #sys.argv[1]
#fch = 'n2.fchk' #sys.argv[2]
bas = 'cc-pvdz'

mf = guess.from_frag(xyz, bas, [[0],[1]], [0,0], [3,-3], cycle=50)
guess.check_stab(mf)

mf2 = autocas.cas(mf)
cidump.dump(mf2)

#INFO: ******************** input file end ********************


System: uname_result(system='Linux', node='xn01', release='3.10.0-1127.el7.x86_64', version='#1 SMP Tue Feb 18 16:39:12 EST 2020', machine='x86_64', processor='x86_64')  Threads 4
Python 3.7.4 (default, Aug 13 2019, 20:35:49) 
[GCC 7.3.0]
numpy 1.17.2  scipy 1.4.1
Date: Thu Jun 10 19:57:06 2021
PySCF version 1.7.6a1
PySCF path  /share/home/srwang/pyscf/pyscf
GIT HEAD      ref: refs/heads/master
GIT master branch  80f71dfe77ac5f9caae26788acf76446987635bd

[CONFIG] conf_file None
[INPUT] verbose = 4
[INPUT] num. atoms = 2
[INPUT] num. electrons = 14
[INPUT] charge = 0
[INPUT] spin (= nelec alpha-beta = 2S) = 0
[INPUT] symmetry False subgroup None
[INPUT] Mole.unit = angstrom
[INPUT]  1 N      0.000000000000   0.000000000000   0.000000000000 AA    0.000000000000   0.000000000000   0.000000000000 Bohr
[INPUT]  2 N      0.000000000000   0.000000000000   1.900000000000 AA    0.000000000000   0.000000000000   3.590479636674 Bohr

nuclear repulsion = 13.6472017553053
number of shells = 10
number of NR pGTOs = 52
number of NR cGTOs = 28
basis = cc-pvdz
ecp = {}
CPU time:         0.46
**** generating fragment guess ****
fragments: [('N', [0.0, 0.0, 0.0])] [('N', [0.0, 0.0, 1.9])]
converged SCF energy = -54.3911145621998  <S^2> = 3.7540306  2S+1 = 4.0020148
converged SCF energy = -54.3911145621998  <S^2> = 3.7540306  2S+1 = 4.0020148
       na   nb
atom1   5    2
atom2   2    5


******** <class 'pyscf.scf.uhf.UHF'> ********
method = UHF
initial guess = minao
damping factor = 0
level_shift factor = 0
DIIS = <class 'pyscf.scf.diis.CDIIS'>
diis_start_cycle = 1
diis_space = 8
SCF conv_tol = 1e-09
SCF conv_tol_grad = None
SCF max_cycles = 50
direct_scf = True
direct_scf_tol = 1e-13
chkfile to save SCF result = /share/home/srwang/pyAutoMR/examples/tmp96621ti7
max_memory 4000 MB (current use 89 MB)
number electrons alpha = 7  beta = 7
Set gradient conv threshold to 3.16228e-05
init E= -108.900143275272
  alpha nocc = 7  HOMO = -0.476464499402219  LUMO = 0.166732176142521
  beta  nocc = 7  HOMO = -0.476464499402217  LUMO = 0.166732176142526
cycle= 1 E= -108.762288631731  delta_E= 0.138  |g|= 0.0527  |ddm|= 0.373
  alpha nocc = 7  HOMO = -0.530330642057189  LUMO = 0.162348570448282
  beta  nocc = 7  HOMO = -0.530330642057184  LUMO = 0.162348570448284
cycle= 2 E= -108.765642733546  delta_E= -0.00335  |g|= 0.0253  |ddm|= 0.0587
  alpha nocc = 7  HOMO = -0.529049671912857  LUMO = 0.159261512802593
  beta  nocc = 7  HOMO = -0.529049671912856  LUMO = 0.159261512802599
cycle= 3 E= -108.767085606679  delta_E= -0.00144  |g|= 0.0126  |ddm|= 0.0548
  alpha nocc = 7  HOMO = -0.528710372834686  LUMO = 0.156378931797922
  beta  nocc = 7  HOMO = -0.52871037283469  LUMO = 0.156378931797923
cycle= 4 E= -108.767469881852  delta_E= -0.000384  |g|= 0.00324  |ddm|= 0.0393
  alpha nocc = 7  HOMO = -0.52732135312872  LUMO = 0.15690565068073
  beta  nocc = 7  HOMO = -0.527321353128719  LUMO = 0.156905650680732
cycle= 5 E= -108.767488344339  delta_E= -1.85e-05  |g|= 0.000626  |ddm|= 0.0078
  alpha nocc = 7  HOMO = -0.527670443529377  LUMO = 0.156831110667573
  beta  nocc = 7  HOMO = -0.527670443529382  LUMO = 0.156831110667579
cycle= 6 E= -108.767488867958  delta_E= -5.24e-07  |g|= 0.000143  |ddm|= 0.00108
  alpha nocc = 7  HOMO = -0.527603375860148  LUMO = 0.156896336092542
  beta  nocc = 7  HOMO = -0.527603375860146  LUMO = 0.156896336092539
cycle= 7 E= -108.767488893983  delta_E= -2.6e-08  |g|= 4.93e-05  |ddm|= 0.000239
  alpha nocc = 7  HOMO = -0.527650705153177  LUMO = 0.156872500788265
  beta  nocc = 7  HOMO = -0.527650705153179  LUMO = 0.156872500788273
cycle= 8 E= -108.767488898007  delta_E= -4.02e-09  |g|= 1.06e-05  |ddm|= 9.2e-05
  alpha nocc = 7  HOMO = -0.527658756971655  LUMO = 0.156874706934989
  beta  nocc = 7  HOMO = -0.527658756971653  LUMO = 0.15687470693499
cycle= 9 E= -108.76748889822  delta_E= -2.13e-10  |g|= 1.78e-06  |ddm|= 2.85e-05
  alpha nocc = 7  HOMO = -0.527658437248203  LUMO = 0.156874663133345
  beta  nocc = 7  HOMO = -0.527658437248204  LUMO = 0.156874663133349
Extra cycle  E= -108.767488898223  delta_E= -2.47e-12  |g|= 6.81e-07  |ddm|= 2.47e-06
converged SCF energy = -108.767488898223  <S^2> = 2.6423741  2S+1 = 3.4013963
time for guess: 0.181
**** checking UHF/UKS internal stability ...
tol 0.0001  toloose 0.01
max_cycle 50  max_space 12  max_memory 2000  incore True
davidson 0 1  |r|= 2.36  e= [2.24876788]  max|de|= 2.25  lindep= 0.688
davidson 1 2  |r|= 1.21  e= [1.33485272]  max|de|= -0.914  lindep= 0.864
davidson 2 3  |r|= 0.35  e= [0.73777471]  max|de|= -0.597  lindep= 0.989
davidson 3 4  |r|= 0.295  e= [0.59748711]  max|de|= -0.14  lindep= 0.955
davidson 4 5  |r|= 0.122  e= [0.55064554]  max|de|= -0.0468  lindep= 0.991
davidson 5 6  |r|= 0.0478  e= [0.54422507]  max|de|= -0.00642  lindep= 0.947
davidson 6 7  |r|= 0.0324  e= [0.54264341]  max|de|= -0.00158  lindep= 0.918
davidson 7 8  |r|= 0.0237  e= [0.54170526]  max|de|= -0.000938  lindep= 0.946
davidson 8 9  |r|= 0.0512  e= [0.54048177]  max|de|= -0.00122  lindep= 0.946
davidson 9 10  |r|= 0.0414  e= [0.53833018]  max|de|= -0.00215  lindep= 0.952
davidson 10 11  |r|= 0.0375  e= [0.5368204]  max|de|= -0.00151  lindep= 0.959
davidson 11 12  |r|= 0.0478  e= [0.53562445]  max|de|= -0.0012  lindep= 0.895
davidson 12 1  |r|= 0.0478  e= [0.53562445]  max|de|= 3.33e-16  lindep= 0.998
davidson 13 2  |r|= 0.0266  e= [0.5350219]  max|de|= -0.000603  lindep= 0.862
davidson 14 3  |r|= 0.0201  e= [0.53452639]  max|de|= -0.000496  lindep= 0.97
davidson 15 4  |r|= 0.0198  e= [0.53415911]  max|de|= -0.000367  lindep= 0.893
davidson 16 5  |r|= 0.0127  e= [0.53397275]  max|de|= -0.000186  lindep= 0.943
root 0 converged  |r|= 0.00952  e= 0.5338732738002672  max|de|= -9.95e-05
converged 17 6  |r|= 0.00952  e= [0.53387327]  max|de|= -9.95e-05
UHF/UKS wavefunction is stable in the internal stability analysis

Warning in subroutine uno: ON_thres deviates from ON_criteria.
You better know what you are doing.

The orthonormality of Alpha MO after PAO construction:
maxv=    0.0000000000
abs_mean=    0.0000000000
Converting <class 'pyscf.scf.uhf.UHF'> to RHF

******** <class 'pyscf.mcscf.mc1step.CASSCF'> ********
CAS (3e+3e, 6o), ncore = 4, nvir = 18
max_cycle_macro = 200
max_cycle_micro = 4
conv_tol = 1e-07
conv_tol_grad = None
orbital rotation max_stepsize = 0.02
augmented hessian ah_max_cycle = 30
augmented hessian ah_conv_tol = 1e-12
augmented hessian ah_linear dependence = 1e-14
augmented hessian ah_level shift = 0
augmented hessian ah_start_tol = 2.5
augmented hessian ah_start_cycle = 3
augmented hessian ah_grad_trust_region = 3
kf_trust_region = 3
kf_interval = 4
ci_response_space = 4
ci_grad_trust_region = 3
with_dep4 0
natorb = True
canonicalization = True
sorting_mo_energy = False
ao2mo_level = 2
chkfile = /share/home/srwang/pyAutoMR/examples/tmp96621ti7
max_memory 1000 MB (current use 91 MB)
internal_rotation = False
******** <class 'pyscf.fci.direct_spin1.FCISolver'> ********
max. cycles = 100
conv_tol = 1e-08
davidson only = False
linear dependence = 1e-10
level shift = 0.001
max iter space = 12
max_memory 1000 MB
nroots = 1
pspace_size = 400
spin = 0
Start 1-step CASSCF
Start CASCI
    CPU time for integral transformation to CAS space      0.00 sec, wall time      0.00 sec
core energy = -99.1673434274728
    CPU time for effective h1e in CAS space      0.00 sec, wall time      0.00 sec
    CPU time for FCI solver      0.30 sec, wall time      0.08 sec
CAS space CI energy = -9.63212763146059
CASCI E = -108.799471058933  S^2 = 0.0000000
Set conv_tol_grad to 0.000316228
    CPU time for Initializing 1-step CASSCF      0.38 sec, wall time      0.09 sec
    CPU time for CAS DM      0.00 sec, wall time      0.00 sec
    |g|=0.0412
    CPU time for gen h_op      0.03 sec, wall time      0.01 sec
    imic 1(3)  |g[o]|=0.0119  |dxi|=0.0328  max(|x|)=0.0265  |dr|=0.0328  eig=-0.00119  seig=0.00111
    CPU time for aug_hess in 1 inner iters      0.03 sec, wall time      0.01 sec
    CPU time for orbital rotation      0.06 sec, wall time      0.02 sec
    CPU time for update CAS DM      0.04 sec, wall time      0.01 sec
micro 1  |u-1|=0.0463  |g[o]|=0.0412  |g[c]|=0.006  |ddm|=0.0278
    CPU time for micro iter 1      0.00 sec, wall time      0.00 sec
    |g|=0.0141 (keyframe), |g-correction|=0.00303
    CPU time for gen h_op      0.03 sec, wall time      0.01 sec
    imic 2(4)  |g[o]|=0.00315  |dxi|=0.019  max(|x|)=0.0154  |dr|=0.019  eig=-0.000141  seig=0.00102
    CPU time for aug_hess in 2 inner iters      0.01 sec, wall time      0.00 sec
    CPU time for orbital rotation      0.04 sec, wall time      0.01 sec
    CPU time for update CAS DM      0.04 sec, wall time      0.01 sec
micro 2  |u-1|=0.0721  |g[o]|=0.0141  |g[c]|=0.00396  |ddm|=0.0404
    CPU time for micro iter 2      0.00 sec, wall time      0.00 sec
    |g|=0.0037 (keyframe), |g-correction|=0.00154
    CPU time for gen h_op      0.03 sec, wall time      0.01 sec
    imic 3(5)  |g[o]|=0.00178  |dxi|=0.00296  max(|x|)=0.00156  |dr|=0.00296  eig=-6.84e-06  seig=0.000977
    imic 4(6)  |g[o]|=0.000504  |dxi|=0.00111  max(|x|)=0.000546  |dr|=0.00353  eig=-1.37e-06  seig=0.000851
    CPU time for aug_hess in 4 inner iters      0.02 sec, wall time      0.00 sec
    CPU time for orbital rotation      0.05 sec, wall time      0.01 sec
    CPU time for update CAS DM      0.04 sec, wall time      0.01 sec
micro 3  |u-1|=0.0755  |g[o]|=0.0037  |g[c]|=0.00193  |ddm|=0.0461
    CPU time for micro iter 3      0.00 sec, wall time      0.00 sec
    |g|=0.000729 (keyframe), |g-correction|=0.000533
    CPU time for gen h_op      0.03 sec, wall time      0.01 sec
    imic 5(7)  |g[o]|=0.000527  |dxi|=0.000396  max(|x|)=0.000162  |dr|=0.000396  eig=-2e-07  seig=0.000847
    imic 6(8)  |g[o]|=9.3e-05  |dxi|=0.000187  max(|x|)=6.37e-05  |dr|=0.000463  eig=-5.29e-08  seig=0.000846
    CPU time for aug_hess in 6 inner iters      0.02 sec, wall time      0.01 sec
    CPU time for orbital rotation      0.05 sec, wall time      0.01 sec
micro 4  |u-1|=0.0758  |g[o]|=0.000729
Active space overlap to initial guess, SVD = [0.99994523 0.99994523 0.99993105 0.99993105 0.99954452 0.99929395]
Active space overlap to last step, SVD = [0.99994523 0.99994523 0.99993105 0.99993105 0.99954452 0.99929395]
    CPU time for update eri      0.04 sec, wall time      0.01 sec
Start CASCI
    CPU time for integral transformation to CAS space      0.00 sec, wall time      0.00 sec
core energy = -99.1323784067595
    CPU time for effective h1e in CAS space      0.00 sec, wall time      0.00 sec
davidson 0 1  |r|= 0.000535  e= [-9.66844554]  max|de|= -9.67  lindep= 0.999
davidson 1 2  |r|= 0.000512  e= [-9.66844591]  max|de|= -3.68e-07  lindep= 0.997
davidson 2 3  |r|= 0.000258  e= [-9.66844605]  max|de|= -1.4e-07  lindep= 0.97
davidson 3 4  |r|= 0.000104  e= [-9.6684461]  max|de|= -5.27e-08  lindep= 0.96
davidson 4 5  |r|= 6.18e-05  e= [-9.66844612]  max|de|= -1.18e-08  lindep= 0.929
root 0 converged  |r|= 2.4e-05  e= -9.668446122683687  max|de|= -6.51e-09
converged 5 6  |r|= 2.4e-05  e= [-9.66844612]  max|de|= -6.51e-09
    CPU time for FCI solver      0.41 sec, wall time      0.10 sec
CAS space CI energy = -9.66844612268369
macro iter 1 (11 JK  4 micro), CASSCF E = -108.800824529443  dE = -0.0013534705  S^2 = 0.0000001
               |grad[o]|=0.0412  |grad[c]|= 0.0019265659839170332  |ddm|=0.0461
    CPU time for CASCI solver      0.44 sec, wall time      0.11 sec
    CPU time for macro iter 1      0.80 sec, wall time      0.20 sec
    |g|=0.000659
    CPU time for gen h_op      0.03 sec, wall time      0.01 sec
    imic 1(3)  |g[o]|=8.28e-05  |dxi|=0.00042  max(|x|)=0.000184  |dr|=0.00042  eig=-2.43e-07  seig=3.44e-08
    CPU time for aug_hess in 1 inner iters      0.03 sec, wall time      0.01 sec
    CPU time for orbital rotation      0.08 sec, wall time      0.02 sec
    CPU time for update CAS DM      0.04 sec, wall time      0.01 sec
micro 1  |u-1|=0.000593  |g[o]|=0.000659  |g[c]|=6.32e-05  |ddm|=0.00023
    CPU time for micro iter 1      0.00 sec, wall time      0.00 sec
    |g|=8.5e-05 (keyframe), |g-correction|=3.1e-05
    CPU time for gen h_op      0.03 sec, wall time      0.01 sec
    imic 2(4)  |g[o]|=5.74e-05  |dxi|=5.89e-05  max(|x|)=4.49e-05  |dr|=5.89e-05  eig=-1.95e-09  seig=3.44e-08
    imic 3(5)  |g[o]|=1.85e-05  |dxi|=3.72e-05  max(|x|)=3.05e-05  |dr|=8.84e-05  eig=-6.34e-10  seig=2.95e-08
    CPU time for orbital rotation      0.05 sec, wall time      0.01 sec
    CPU time for update CAS DM      0.04 sec, wall time      0.01 sec
micro 2  |u-1|=0.000643  |g[o]|=8.5e-05  |g[c]|=2.48e-05  |ddm|=0.000282
    CPU time for micro iter 2      0.00 sec, wall time      0.00 sec
Active space overlap to initial guess, SVD = [0.99994283 0.99994283 0.99993248 0.99993248 0.99954884 0.99930068]
Active space overlap to last step, SVD = [0.99999999 0.99999999 0.99999999 0.99999998 0.99999997 0.99999997]
    CPU time for update eri      0.04 sec, wall time      0.01 sec
Start CASCI
    CPU time for integral transformation to CAS space      0.00 sec, wall time      0.00 sec
core energy = -99.1327565943081
    CPU time for effective h1e in CAS space      0.00 sec, wall time      0.00 sec
davidson 0 1  |r|= 7.82e-06  e= [-9.66806819]  max|de|= -9.67  lindep=    1
Linear dependency in trial subspace. |r| for each state [7.822767492726035e-06]
    CPU time for FCI solver      0.30 sec, wall time      0.07 sec
CAS space CI energy = -9.66806818846146
macro iter 2 (6 JK  2 micro), CASSCF E = -108.80082478277  dE = -2.5332633e-07  S^2 = 0.0000000
               |grad[o]|=0.000659  |grad[c]|= 2.4754237851130597e-05  |ddm|=0.000282
    CPU time for CASCI solver      0.33 sec, wall time      0.08 sec
    CPU time for macro iter 2      0.58 sec, wall time      0.15 sec
    |g|=1.77e-05
    CPU time for gen h_op      0.03 sec, wall time      0.01 sec
    CPU time for orbital rotation      0.05 sec, wall time      0.01 sec
    CPU time for update CAS DM      0.04 sec, wall time      0.01 sec
micro 1  |u-1|=    0  |g[o]|=1.77e-05  |g[c]|=7.82e-06  |ddm|=1.78e-05
    CPU time for micro iter 1      0.00 sec, wall time      0.00 sec
Active space overlap to initial guess, SVD = [0.99994283 0.99994283 0.99993248 0.99993248 0.99954884 0.99930068]
Active space overlap to last step, SVD = [1. 1. 1. 1. 1. 1.]
    CPU time for update eri      0.04 sec, wall time      0.01 sec
Start CASCI
    CPU time for integral transformation to CAS space      0.00 sec, wall time      0.00 sec
core energy = -99.1327565943081
    CPU time for effective h1e in CAS space      0.00 sec, wall time      0.00 sec
davidson 0 1  |r|= 6.8e-06  e= [-9.66806819]  max|de|= -9.67  lindep=    1
Linear dependency in trial subspace. |r| for each state [6.7963658553065855e-06]
    CPU time for FCI solver      0.30 sec, wall time      0.07 sec
CAS space CI energy = -9.66806818859457
macro iter 3 (1 JK  1 micro), CASSCF E = -108.800824782903  dE = -1.3311308e-10  S^2 = 0.0000000
               |grad[o]|=1.77e-05  |grad[c]|= 7.822767492578496e-06  |ddm|=1.78e-05
    CPU time for CASCI solver      0.32 sec, wall time      0.08 sec
    CPU time for macro iter 3      0.45 sec, wall time      0.11 sec
1-step CASSCF converged in 3 macro (18 JK 7 micro) steps
CASSCF canonicalization
where_natorb [0, 2, 1, 4, 3, 5]
Natural occ [1.73301248 1.3915201  1.3915201  0.60847338 0.60847338 0.26700057]
Natural orbital (expansion on meta-Lowdin AOs) in CAS space
               #1        #2        #3        #4        #5       
  0 N 1s      -0.00133  -0.00000   0.00000   0.00000  -0.00000
  0 N 2s      -0.01192  -0.00000  -0.00000  -0.00000  -0.00000
  0 N 3s       0.01739  -0.00000   0.00000   0.00000   0.00000
  0 N 2px     -0.00000  -0.65584   0.26219   0.31705  -0.63198
  0 N 2py     -0.00000   0.26219   0.65584   0.63198   0.31705
  0 N 2pz     -0.70628   0.00000  -0.00000  -0.00000   0.00000
  0 N 3px     -0.00000  -0.02868   0.01147   0.00307  -0.00612
  0 N 3py     -0.00000   0.01147   0.02868   0.00612   0.00307
  0 N 3pz     -0.01652   0.00000   0.00000   0.00000  -0.00000
  0 N 3dxy     0.00000   0.00000   0.00000   0.00000   0.00000
  0 N 3dyz    -0.00000   0.00492   0.01231   0.00462   0.00232
  0 N 3dz^2   -0.02129   0.00000   0.00000   0.00000   0.00000
  0 N 3dxz    -0.00000  -0.01231   0.00492   0.00232  -0.00462
 0 N 3dx2-y2   0.00000  -0.00000   0.00000   0.00000  -0.00000
  1 N 1s      -0.00133   0.00000   0.00000  -0.00000  -0.00000
  1 N 2s      -0.01192   0.00000   0.00000   0.00000   0.00000
  1 N 3s       0.01739  -0.00000  -0.00000  -0.00000  -0.00000
  1 N 2px     -0.00000  -0.65584   0.26219  -0.31705   0.63198
  1 N 2py     -0.00000   0.26219   0.65584  -0.63198  -0.31705
  1 N 2pz      0.70628   0.00000  -0.00000  -0.00000   0.00000
  1 N 3px     -0.00000  -0.02868   0.01147  -0.00307   0.00612
  1 N 3py      0.00000   0.01147   0.02868  -0.00612  -0.00307
  1 N 3pz      0.01652   0.00000   0.00000   0.00000   0.00000
  1 N 3dxy     0.00000  -0.00000   0.00000   0.00000   0.00000
  1 N 3dyz    -0.00000  -0.00492  -0.01231   0.00462   0.00232
  1 N 3dz^2   -0.02129   0.00000  -0.00000  -0.00000  -0.00000
  1 N 3dxz     0.00000   0.01231  -0.00492   0.00232  -0.00462
 1 N 3dx2-y2  -0.00000  -0.00000   0.00000   0.00000   0.00000
               #6       
  0 N 1s       0.00005
  0 N 2s      -0.14317
  0 N 3s      -0.01456
  0 N 2px     -0.00000
  0 N 2py     -0.00000
  0 N 2pz     -0.69230
  0 N 3px     -0.00000
  0 N 3py     -0.00000
  0 N 3pz      0.00216
  0 N 3dxy    -0.00000
  0 N 3dyz    -0.00000
  0 N 3dz^2   -0.00155
  0 N 3dxz    -0.00000
 0 N 3dx2-y2   0.00000
  1 N 1s      -0.00005
  1 N 2s       0.14317
  1 N 3s       0.01456
  1 N 2px      0.00000
  1 N 2py     -0.00000
  1 N 2pz     -0.69230
  1 N 3px     -0.00000
  1 N 3py      0.00000
  1 N 3pz      0.00216
  1 N 3dxy    -0.00000
  1 N 3dyz    -0.00000
  1 N 3dz^2    0.00155
  1 N 3dxz     0.00000
 1 N 3dx2-y2  -0.00000
<CAS-nat-orb|mo-hf>  5  5    0.99930068
<CAS-nat-orb|mo-hf>  6  7    0.99934670
<CAS-nat-orb|mo-hf>  7  6    0.99934670
<CAS-nat-orb|mo-hf>  8  9    0.99283691
<CAS-nat-orb|mo-hf>  9  8    0.99283691
<CAS-nat-orb|mo-hf>  10  10    0.99954884
i = 1  <i|F|i> = -15.66557630
i = 2  <i|F|i> = -15.66543206
i = 3  <i|F|i> =  -1.02333288
i = 4  <i|F|i> =  -0.90054346
i = 5  <i|F|i> =  -0.42263824
i = 6  <i|F|i> =  -0.28754067
i = 7  <i|F|i> =  -0.28754067
i = 8  <i|F|i> =  -0.09105830
i = 9  <i|F|i> =  -0.09105830
i = 10  <i|F|i> =   0.10837189
i = 11  <i|F|i> =   0.90975192
i = 12  <i|F|i> =   0.91615850
i = 13  <i|F|i> =   0.91615850
i = 14  <i|F|i> =   0.99850014
i = 15  <i|F|i> =   1.01424655
i = 16  <i|F|i> =   1.01424655
i = 17  <i|F|i> =   1.14786873
i = 18  <i|F|i> =   1.36507303
i = 19  <i|F|i> =   1.83016415
i = 20  <i|F|i> =   1.89703467
i = 21  <i|F|i> =   1.89703467
i = 22  <i|F|i> =   2.01377352
i = 23  <i|F|i> =   2.01377352
i = 24  <i|F|i> =   2.05929440
i = 25  <i|F|i> =   2.05929440
i = 26  <i|F|i> =   2.23527112
i = 27  <i|F|i> =   2.23527112
i = 28  <i|F|i> =   2.80122048
    CPU time for 1-step CASSCF      2.33 sec, wall time      0.58 sec
CASSCF energy = -108.800824782903
CASCI E = -108.800824782903  E(CI) = -9.66806818859457  S^2 = 0.0000000
 c**2   Gaussian-type vector
 0.406424  111000 
 0.115714  110100 
 0.115714  101010 
 0.047997  100110 
 0.039481  1baab0 
 0.039481  1abba0 
 0.025726  011001 
 0.015455  1abab0 
 0.015455  1baba0 
 0.013916  010101 
 0.013916  001011 
 0.011759  000111 
 0.010275  ba10ab 
 0.010275  ab10ba 
 0.010275  a1bb0a 
 0.010275  b1aa0b 
 0.007159  b1ab0a 
 0.007159  ab10ab 
 0.007159  a1ba0b 
 0.007159  ba10ba 
 0.005540  1aabb0 
 0.005540  1bbaa0 
 0.004704  ab01ba 
 0.004704  ba01ab 
 0.004704  b0aa1b 
 0.004704  a0bb1a 
 0.004649  0baab1 
 0.004649  0abba1 
 0.003549  a0ba1b 
 0.003549  ab01ab 
 0.003549  ba01ba 
 0.003549  b0ab1a 
 0.001961  0baba1 
 0.001961  0abab1 
 c**2     ORCA-type vector
 0.406424  222000 
 0.120950  211110 
 0.115714  220200 
 0.115714  202020 
 0.047997  200220 
 0.034869  121101 
 0.034869  112011 
 0.025726  022002 
 0.016506  110211 
 0.016506  101121 
 0.013916  020202 
 0.013916  002022 
 0.013220  011112 
 0.011759  000222 
