#INFO: **** input file is /share/home/srwang/pyAutoMR/examples/38-benzene.py ****
from pyscf import lib, scf
#from pyphf import guess, suscf
from automr import autocas, guess

lib.num_threads(8)

xyz = '''C                 -2.94294278    0.39039038    0.00000000
 C                 -1.54778278    0.39039038    0.00000000
 C                 -0.85024478    1.59814138    0.00000000
 C                 -1.54789878    2.80665038   -0.00119900
 C                 -2.94272378    2.80657238   -0.00167800
 C                 -3.64032478    1.59836638   -0.00068200
 H                 -3.49270178   -0.56192662    0.00045000
 H                 -0.99827478   -0.56212262    0.00131500
 H                  0.24943522    1.59822138    0.00063400
 H                 -0.99769878    3.75879338   -0.00125800
 H                 -3.49284578    3.75885338   -0.00263100
 H                 -4.73992878    1.59854938   -0.00086200
'''
bas = 'def2-svp'

mf = guess.mix(xyz, bas, conv='tight')

mf2 = autocas.cas(mf)

#INFO: ******************** input file end ********************


System: uname_result(system='Linux', node='xn01', release='3.10.0-1127.el7.x86_64', version='#1 SMP Tue Feb 18 16:39:12 EST 2020', machine='x86_64', processor='x86_64')  Threads 8
Python 3.7.4 (default, Aug 13 2019, 20:35:49) 
[GCC 7.3.0]
numpy 1.17.2  scipy 1.4.1
Date: Mon Jul 26 14:23:01 2021
PySCF version 1.7.6a1
PySCF path  /share/home/srwang/pyscf/pyscf
GIT ORIG_HEAD 80f71dfe77ac5f9caae26788acf76446987635bd
GIT HEAD      ref: refs/heads/master
GIT master branch  80f71dfe77ac5f9caae26788acf76446987635bd

[ENV] PYSCF_EXT_PATH /share/home/srwang/pyscf_ext/fciqmc:
[CONFIG] conf_file /share/home/srwang/.pyscf_conf.py
[INPUT] verbose = 4
[INPUT] num. atoms = 12
[INPUT] num. electrons = 42
[INPUT] charge = 0
[INPUT] spin (= nelec alpha-beta = 2S) = 0
[INPUT] symmetry False subgroup None
[INPUT] Mole.unit = angstrom
[INPUT]  1 C     -2.942942780000   0.390390380000   0.000000000000 AA   -5.561355854466   0.737730899865   0.000000000000 Bohr
[INPUT]  2 C     -1.547782780000   0.390390380000   0.000000000000 AA   -2.924885554518   0.737730899865   0.000000000000 Bohr
[INPUT]  3 C     -0.850244780000   1.598141380000   0.000000000000 AA   -1.606729773041   3.020049516534   0.000000000000 Bohr
[INPUT]  4 C     -1.547898780000   2.806650380000  -0.001199000000 AA   -2.925104762748   5.303800545606  -0.002265781623 Bohr
[INPUT]  5 C     -2.942723780000   2.806572380000  -0.001678000000 AA   -5.560942004445   5.303653146969  -0.003170960437 Bohr
[INPUT]  6 C     -3.640324780000   1.598366380000  -0.000682000000 AA   -6.879216838668   3.020474704912  -0.001288793217 Bohr
[INPUT]  7 H     -3.492701780000  -0.561926620000   0.000450000000 AA   -6.600249798981  -1.061887413903   0.000850376756 Bohr
[INPUT]  8 H     -0.998274780000  -0.562122620000   0.001315000000 AA   -1.886465931260  -1.062257800223   0.002484989854 Bohr
[INPUT]  9 H      0.249435220000   1.598221380000   0.000634000000 AA    0.471364251621   3.020200694624   0.001198086363 Bohr
[INPUT] 10 H     -0.997698780000   3.758793380000  -0.001258000000 AA   -1.885377449013   7.103090047028  -0.002377275465 Bohr
[INPUT] 11 H     -3.492845780000   3.758853380000  -0.002631000000 AA   -6.600521919543   7.103203430596  -0.004971869434 Bohr
[INPUT] 12 H     -4.739928780000   1.598549380000  -0.000862000000 AA   -8.957167244144   3.020820524793  -0.001628943919 Bohr

nuclear repulsion = 203.030749103728
number of shells = 54
number of NR pGTOs = 186
number of NR cGTOs = 114
basis = def2-svp
ecp = {}
CPU time:         1.08


******** <class 'pyscf.scf.hf.RHF'> ********
method = RHF
initial guess = minao
damping factor = 0
level_shift factor = 0
DIIS = <class 'pyscf.scf.diis.CDIIS'>
diis_start_cycle = 1
diis_space = 8
SCF conv_tol = 1e-05
SCF conv_tol_grad = None
SCF max_cycles = 50
direct_scf = True
direct_scf_tol = 1e-13
chkfile to save SCF result = /share/home/srwang/pyAutoMR/examples/tmp584j2z9o
max_memory 4000 MB (current use 104 MB)
Set gradient conv threshold to 0.00316228
init E= -232.030731117781
  HOMO = -0.25193368939777  LUMO = 0.038874331891637
cycle= 1 E= -230.468948375201  delta_E= 1.56  |g|= 0.407  |ddm|=  3.8
  HOMO = -0.359696921358992  LUMO = 0.112311394799909
cycle= 2 E= -230.529922236946  delta_E= -0.061  |g|= 0.107  |ddm|= 0.89
  HOMO = -0.329179035971896  LUMO = 0.141319088000409
cycle= 3 E= -230.534293686435  delta_E= -0.00437  |g|= 0.0297  |ddm|= 0.318
  HOMO = -0.33868354023095  LUMO = 0.132754664925123
cycle= 4 E= -230.534565623227  delta_E= -0.000272  |g|= 0.00436  |ddm|= 0.0405
  HOMO = -0.338222592015443  LUMO = 0.13293624872865
cycle= 5 E= -230.534572235629  delta_E= -6.61e-06  |g|= 0.000793  |ddm|= 0.00803
  HOMO = -0.337971839152629  LUMO = 0.133133864850444
Extra cycle  E= -230.534572550487  delta_E= -3.15e-07  |g|= 0.000258  |ddm|= 0.00111
converged SCF energy = -230.534572550487
**** generating mix guess ****
rotating angle: 0.25 pi


******** <class 'pyscf.scf.uhf.UHF'> ********
method = UHF
initial guess = minao
damping factor = 0
level_shift factor = 0
DIIS = <class 'pyscf.scf.diis.CDIIS'>
diis_start_cycle = 1
diis_space = 8
SCF conv_tol = 1e-09
SCF conv_tol_grad = None
SCF max_cycles = 100
direct_scf = True
direct_scf_tol = 1e-13
chkfile to save SCF result = /share/home/srwang/pyAutoMR/examples/tmph191d_4k
max_memory 4000 MB (current use 311 MB)
number electrons alpha = 21  beta = 21
Set gradient conv threshold to 3.16228e-05
init E= -107.811231637401
  alpha nocc = 21  HOMO = 9.46156558604339  LUMO = 9.47893415792931
  beta  nocc = 21  HOMO = 9.4615664675305  LUMO = 9.47888362976186
cycle= 1 E= -173.543297745197  delta_E= -65.7  |g|= 5.92  |ddm|=  755
  alpha nocc = 21  HOMO = -3.2464531701174  LUMO = -3.22713445221593
  beta  nocc = 21  HOMO = -3.24643519641339  LUMO = -3.22713640054202
cycle= 2 E= -201.911566074584  delta_E= -28.4  |g|= 5.68  |ddm|=  755
  alpha nocc = 21  HOMO = -1.09227624343185  LUMO = -0.916277781010623
  beta  nocc = 21  HOMO = -1.09207596781174  LUMO = -0.916278529054791
cycle= 3 E= -228.902577476508  delta_E=  -27  |g|= 1.53  |ddm|= 9.15
  alpha nocc = 21  HOMO = -0.488420307276125  LUMO = -0.0244293883473472
  beta  nocc = 21  HOMO = -0.48841487732273  LUMO = -0.0244266435249489
cycle= 4 E= -230.191395715455  delta_E= -1.29  |g|= 0.762  |ddm|= 1.34
  alpha nocc = 21  HOMO = -0.403240383829463  LUMO = 0.084978904895772
  beta  nocc = 21  HOMO = -0.403230165825846  LUMO = 0.0849974341070309
cycle= 5 E= -230.475260628938  delta_E= -0.284  |g|= 0.319  |ddm|= 0.696
  alpha nocc = 21  HOMO = -0.338294217320266  LUMO = 0.128022980812735
  beta  nocc = 21  HOMO = -0.338256040091251  LUMO = 0.12805314142293
cycle= 6 E= -230.533191511979  delta_E= -0.0579  |g|= 0.0438  |ddm|= 0.43
  alpha nocc = 21  HOMO = -0.337981775500783  LUMO = 0.131333078264688
  beta  nocc = 21  HOMO = -0.337956635376617  LUMO = 0.131358529853861
cycle= 7 E= -230.53430967567  delta_E= -0.00112  |g|= 0.0198  |ddm|= 0.0599
  alpha nocc = 21  HOMO = -0.338023798433785  LUMO = 0.132945068743692
  beta  nocc = 21  HOMO = -0.3380266613726  LUMO = 0.132943954702766
cycle= 8 E= -230.534568848925  delta_E= -0.000259  |g|= 0.00251  |ddm|= 0.0258
  alpha nocc = 21  HOMO = -0.337845063108048  LUMO = 0.133223076895223
  beta  nocc = 21  HOMO = -0.337845345243325  LUMO = 0.133222379143169
cycle= 9 E= -230.534574084283  delta_E= -5.24e-06  |g|= 0.000647  |ddm|= 0.00529
  alpha nocc = 21  HOMO = -0.337992400332186  LUMO = 0.133112657514295
  beta  nocc = 21  HOMO = -0.337992398304987  LUMO = 0.133112609502032
cycle= 10 E= -230.534574415958  delta_E= -3.32e-07  |g|= 0.00026  |ddm|= 0.000771
  alpha nocc = 21  HOMO = -0.337973578945966  LUMO = 0.133124207335901
  beta  nocc = 21  HOMO = -0.337973626127687  LUMO = 0.13312413724372
cycle= 11 E= -230.534574640409  delta_E= -2.24e-07  |g|= 0.000255  |ddm|= 0.000591
  alpha nocc = 21  HOMO = -0.337969313955596  LUMO = 0.13312526460531
  beta  nocc = 21  HOMO = -0.337969318174496  LUMO = 0.133125223543571
cycle= 12 E= -230.534574296251  delta_E= 3.44e-07  |g|= 0.000236  |ddm|= 0.000901
  alpha nocc = 21  HOMO = -0.337971203790069  LUMO = 0.133122062971377
  beta  nocc = 21  HOMO = -0.33797111031954  LUMO = 0.133122113593345
cycle= 13 E= -230.534573099992  delta_E= 1.2e-06  |g|= 0.000154  |ddm|= 0.00417
  alpha nocc = 21  HOMO = -0.337965881329656  LUMO = 0.13312570822712
  beta  nocc = 21  HOMO = -0.337965763428641  LUMO = 0.133125700159194
cycle= 14 E= -230.534572619806  delta_E= 4.8e-07  |g|= 6.34e-05  |ddm|= 0.00386
  alpha nocc = 21  HOMO = -0.337968351110142  LUMO = 0.133120843973893
  beta  nocc = 21  HOMO = -0.337968318600325  LUMO = 0.13312084325231
cycle= 15 E= -230.534572587363  delta_E= 3.24e-08  |g|= 2.23e-05  |ddm|= 0.00133
  alpha nocc = 21  HOMO = -0.337968966255231  LUMO = 0.133120098649691
  beta  nocc = 21  HOMO = -0.337968954871819  LUMO = 0.133120098477462
cycle= 16 E= -230.534572587824  delta_E= -4.6e-10  |g|= 1.06e-05  |ddm|= 0.000191
  alpha nocc = 21  HOMO = -0.337968331575132  LUMO = 0.133120802712454
  beta  nocc = 21  HOMO = -0.337968322157933  LUMO = 0.133120801544191
Extra cycle  E= -230.534572588001  delta_E= -1.77e-10  |g|= 6.87e-06  |ddm|= 1.96e-05
converged SCF energy = -230.534572588001  <S^2> = 3.2572913e-09  2S+1 = 1
**** checking UHF/UKS internal stability ...
tol 0.0001  toloose 0.01
max_cycle 50  max_space 12  max_memory 2000  incore True
davidson 0 1  |r|= 2.32  e= [2.45492]  max|de|= 2.45  lindep=    1
davidson 1 2  |r|= 0.233  e= [2.002565]  max|de|= -0.452  lindep= 0.994
davidson 2 3  |r|= 0.382  e= [1.592637]  max|de|= -0.41  lindep= 0.998
davidson 3 4  |r|= 0.283  e= [1.170173]  max|de|= -0.422  lindep= 0.998
davidson 4 5  |r|= 0.366  e= [0.901741]  max|de|= -0.268  lindep= 0.942
davidson 5 6  |r|= 0.21  e= [0.820171]  max|de|= -0.0816  lindep= 0.873
davidson 6 7  |r|= 0.442  e= [0.531344]  max|de|= -0.289  lindep= 0.988
davidson 7 8  |r|= 0.273  e= [0.427768]  max|de|= -0.104  lindep= 0.974
davidson 8 9  |r|= 0.245  e= [0.348846]  max|de|= -0.0789  lindep= 0.951
davidson 9 10  |r|= 0.558  e= [0.173997]  max|de|= -0.175  lindep= 0.918
davidson 10 11  |r|= 0.251  e= [-0.022969]  max|de|= -0.197  lindep= 0.98
davidson 11 12  |r|= 0.0722  e= [-0.05095]  max|de|= -0.028  lindep= 0.981
davidson 12 1  |r|= 0.0722  e= [-0.05095]  max|de|= 3.75e-16  lindep= 0.988
davidson 13 2  |r|= 0.0317  e= [-0.052775]  max|de|= -0.00183  lindep= 0.984
davidson 14 3  |r|= 0.015  e= [-0.053255]  max|de|= -0.00048  lindep= 0.992
root 0 converged  |r|= 0.0053  e= -0.05334679848109654  max|de|= -9.15e-05
converged 15 4  |r|= 0.0053  e= [-0.053347]  max|de|= -9.15e-05
UHF/UKS wavefunction has an internal instability.


******** <class 'pyscf.scf.uhf.UHF'> ********
method = UHF
initial guess = minao
damping factor = 0
level_shift factor = 0
DIIS = <class 'pyscf.scf.diis.CDIIS'>
diis_start_cycle = 1
diis_space = 8
SCF conv_tol = 1e-09
SCF conv_tol_grad = None
SCF max_cycles = 100
direct_scf = True
direct_scf_tol = 1e-13
chkfile to save SCF result = /share/home/srwang/pyAutoMR/examples/tmph191d_4k
max_memory 4000 MB (current use 492 MB)
number electrons alpha = 21  beta = 21
Set gradient conv threshold to 3.16228e-05
init E= -230.506432297028
  alpha nocc = 21  HOMO = -0.384070046642639  LUMO = 0.175177380598406
  beta  nocc = 21  HOMO = -0.383956139649097  LUMO = 0.17520351927532
cycle= 1 E= -230.52335273223  delta_E= -0.0169  |g|= 0.0499  |ddm|= 0.174
  alpha nocc = 21  HOMO = -0.375720531511502  LUMO = 0.172414308852648
  beta  nocc = 21  HOMO = -0.37570123946791  LUMO = 0.17244639150189
cycle= 2 E= -230.529074776946  delta_E= -0.00572  |g|= 0.0355  |ddm|= 0.0961
  alpha nocc = 21  HOMO = -0.373373536025449  LUMO = 0.160138843765433
  beta  nocc = 21  HOMO = -0.373287127308897  LUMO = 0.16017524743927
cycle= 3 E= -230.534167066447  delta_E= -0.00509  |g|= 0.0223  |ddm|= 0.136
  alpha nocc = 21  HOMO = -0.362371027816823  LUMO = 0.155995435700437
  beta  nocc = 21  HOMO = -0.362354942270945  LUMO = 0.156009059610328
cycle= 4 E= -230.536887897429  delta_E= -0.00272  |g|= 0.0111  |ddm|= 0.14
  alpha nocc = 21  HOMO = -0.355771270510886  LUMO = 0.149469177263825
  beta  nocc = 21  HOMO = -0.35577156130929  LUMO = 0.149488935253366
cycle= 5 E= -230.537663202867  delta_E= -0.000775  |g|= 0.00373  |ddm|=  0.1
  alpha nocc = 21  HOMO = -0.353368531017315  LUMO = 0.147619220084236
  beta  nocc = 21  HOMO = -0.353340579829654  LUMO = 0.147614093494549
cycle= 6 E= -230.537736971434  delta_E= -7.38e-05  |g|= 0.00102  |ddm|= 0.0358
  alpha nocc = 21  HOMO = -0.353045884045818  LUMO = 0.147317831688734
  beta  nocc = 21  HOMO = -0.353044129096726  LUMO = 0.147347536093046
cycle= 7 E= -230.53773938668  delta_E= -2.42e-06  |g|= 0.000402  |ddm|= 0.00741
  alpha nocc = 21  HOMO = -0.353096921020151  LUMO = 0.147330959176993
  beta  nocc = 21  HOMO = -0.353086043107516  LUMO = 0.147331363375833
cycle= 8 E= -230.537739567583  delta_E= -1.81e-07  |g|= 0.00016  |ddm|= 0.000808
  alpha nocc = 21  HOMO = -0.353174325200978  LUMO = 0.147378107284644
  beta  nocc = 21  HOMO = -0.353169154549974  LUMO = 0.147383654270152
cycle= 9 E= -230.537739694057  delta_E= -1.26e-07  |g|= 4.97e-05  |ddm|= 0.00118
  alpha nocc = 21  HOMO = -0.353210753310139  LUMO = 0.147414579520972
  beta  nocc = 21  HOMO = -0.353204712544056  LUMO = 0.147419568890126
cycle= 10 E= -230.537739712591  delta_E= -1.85e-08  |g|= 1.3e-05  |ddm|= 0.000585
  alpha nocc = 21  HOMO = -0.353218368212378  LUMO = 0.14742369458474
  beta  nocc = 21  HOMO = -0.353212705700647  LUMO = 0.147428973911583
cycle= 11 E= -230.537739713483  delta_E= -8.92e-10  |g|= 4.02e-06  |ddm|= 0.000147
  alpha nocc = 21  HOMO = -0.353218636004153  LUMO = 0.14742383287703
  beta  nocc = 21  HOMO = -0.353212705217399  LUMO = 0.147428973662431
Extra cycle  E= -230.537739713496  delta_E= -1.3e-11  |g|= 2.12e-06  |ddm|= 7.16e-06
converged SCF energy = -230.537739713496  <S^2> = 0.45180986  2S+1 = 1.6754819
**** checking UHF/UKS internal stability ...
tol 0.0001  toloose 0.01
max_cycle 50  max_space 12  max_memory 2000  incore True
davidson 0 1  |r|= 2.33  e= [2.425497]  max|de|= 2.43  lindep= 0.997
davidson 1 2  |r|= 0.265  e= [1.961775]  max|de|= -0.464  lindep= 0.997
davidson 2 3  |r|= 0.278  e= [1.485244]  max|de|= -0.477  lindep=    1
davidson 3 4  |r|= 0.238  e= [1.096288]  max|de|= -0.389  lindep= 0.998
davidson 4 5  |r|= 0.237  e= [0.766927]  max|de|= -0.329  lindep= 0.965
davidson 5 6  |r|= 0.29  e= [0.681639]  max|de|= -0.0853  lindep= 0.927
davidson 6 7  |r|= 0.444  e= [0.508743]  max|de|= -0.173  lindep= 0.944
davidson 7 8  |r|= 0.357  e= [0.257185]  max|de|= -0.252  lindep= 0.988
davidson 8 9  |r|= 0.252  e= [0.172104]  max|de|= -0.0851  lindep= 0.967
davidson 9 10  |r|= 0.14  e= [0.119475]  max|de|= -0.0526  lindep= 0.969
davidson 10 11  |r|= 0.0851  e= [0.105093]  max|de|= -0.0144  lindep= 0.976
davidson 11 12  |r|= 0.0267  e= [0.102155]  max|de|= -0.00294  lindep= 0.989
davidson 12 1  |r|= 0.0267  e= [0.102155]  max|de|= -9.71e-17  lindep= 0.999
davidson 13 2  |r|= 0.0132  e= [0.101796]  max|de|= -0.000359  lindep= 0.991
root 0 converged  |r|= 0.00594  e= 0.10171617078894717  max|de|= -7.99e-05
converged 14 3  |r|= 0.00594  e= [0.101716]  max|de|= -7.99e-05
UHF/UKS wavefunction is stable in the internal stability analysis
time for guess: 3.208
UNO ON: [ 2.        2.        2.        2.        2.        2.        1.999872  1.999808  1.999808  1.999764  1.999638  1.999638  1.999454  1.999444  1.999444
  1.999232  1.999094  1.999094  1.977529  1.89562   1.895493  0.104507  0.10438   0.022471  0.000906  0.000906  0.000768  0.000556  0.000556  0.000546
  0.000362  0.000362  0.000236  0.000192  0.000192  0.000128  0.        0.        0.        0.        0.        0.        0.        0.        0.
  0.        0.        0.        0.        0.        0.        0.        0.        0.        0.        0.        0.        0.        0.        0.
  0.        0.        0.        0.        0.        0.        0.        0.        0.        0.        0.        0.        0.        0.        0.
  0.        0.        0.       -0.       -0.       -0.       -0.       -0.       -0.       -0.       -0.       -0.       -0.       -0.       -0.
 -0.       -0.       -0.       -0.       -0.       -0.       -0.       -0.       -0.       -0.       -0.       -0.       -0.       -0.       -0.
 -0.       -0.       -0.       -0.       -0.       -0.       -0.       -0.       -0.      ]
nacto, nacta, nactb: 6 3 3
Converting <class 'pyscf.scf.uhf.UHF'> to RHF
UNO in active space
             #0      #1      #2      #3      #4      #5     
  0 C 2pz     -0.217   0.110  -0.309   0.396   0.142  -0.367
  0 C 3pz     -0.130          -0.245   0.402   0.144  -0.379
  1 C 2pz     -0.217   0.322                  -0.414   0.367
  1 C 3pz     -0.130   0.256                  -0.420   0.379
  2 C 2pz     -0.217   0.212   0.250  -0.321   0.272  -0.367
  2 C 3pz     -0.129   0.168   0.198  -0.325   0.276  -0.379
  3 C 2pz     -0.217  -0.111   0.309   0.396   0.142   0.367
  3 C 3pz     -0.129           0.245   0.402   0.144   0.379
  4 C 2pz     -0.217  -0.322                  -0.414  -0.367
  4 C 3pz     -0.130  -0.256                  -0.420  -0.379
  5 C 2pz     -0.217  -0.212  -0.250  -0.321   0.272   0.367
  5 C 3pz     -0.130  -0.168  -0.198  -0.325   0.276   0.379

******** <class 'pyscf.mcscf.mc1step.CASSCF'> ********
CAS (3e+3e, 6o), ncore = 18, nvir = 90
max_cycle_macro = 200
max_cycle_micro = 4
conv_tol = 1e-07
conv_tol_grad = None
orbital rotation max_stepsize = 0.02
augmented hessian ah_max_cycle = 30
augmented hessian ah_conv_tol = 1e-12
augmented hessian ah_linear dependence = 1e-14
augmented hessian ah_level shift = 0
augmented hessian ah_start_tol = 2.5
augmented hessian ah_start_cycle = 3
augmented hessian ah_grad_trust_region = 3
kf_trust_region = 3
kf_interval = 4
ci_response_space = 4
ci_grad_trust_region = 3
with_dep4 0
natorb = True
canonicalization = True
sorting_mo_energy = False
ao2mo_level = 2
chkfile = /share/home/srwang/pyAutoMR/examples/tmph191d_4k
max_memory 1000 MB (current use 321 MB)
internal_rotation = False
******** <class 'pyscf.fci.direct_spin1.FCISolver'> ********
max. cycles = 100
conv_tol = 1e-08
davidson only = False
linear dependence = 1e-10
level shift = 0.001
max iter space = 12
max_memory 1000 MB
nroots = 1
pspace_size = 400
spin = 0
CASCI E = -230.60578574841  S^2 = 0.0000000
Set conv_tol_grad to 0.000316228
macro iter 1 (12 JK  4 micro), CASSCF E = -230.60732331524  dE = -0.0015375668  S^2 = 0.0000000
               |grad[o]|=0.0297  |grad[c]|= 0.001438515674655068  |ddm|=0.00228
macro iter 2 (3 JK  1 micro), CASSCF E = -230.607323345821  dE = -3.058085e-08  S^2 = 0.0000000
               |grad[o]|=8.39e-05  |grad[c]|= 3.7630847484244414e-05  |ddm|=6.64e-05
1-step CASSCF converged in 2 macro (15 JK 5 micro) steps
CASSCF canonicalization
Natural occ [1.96042  1.900674 1.900621 0.100711 0.100656 0.036918]
Natural orbital (expansion on AOs) in CAS space
               #1        #2        #3        #4        #5       
  0 C 1s       0.00001  -0.00000   0.00001  -0.00002   0.00004
  0 C 2s      -0.00002   0.00001  -0.00003   0.00004  -0.00009
  0 C 3s      -0.00005  -0.00014  -0.00007   0.00009  -0.00017
  0 C 2px      0.00003   0.00001  -0.00002   0.00001  -0.00008
  0 C 2py     -0.00012   0.00005  -0.00016   0.00024   0.00005
  0 C 2pz     -0.22070   0.11661  -0.31273   0.42776   0.15973
  0 C 3px      0.00000  -0.00003  -0.00001   0.00005  -0.00010
  0 C 3py     -0.00009  -0.00000  -0.00013   0.00020  -0.00003
  0 C 3pz     -0.12732   0.08888  -0.23844   0.33449   0.12499
  0 C 3dxy    -0.00001   0.00001   0.00000   0.00001  -0.00002
  0 C 3dyz    -0.01087  -0.00669  -0.01229  -0.00391   0.01388
  0 C 3dz^2    0.00001   0.00001   0.00001   0.00001  -0.00000
  0 C 3dxz    -0.00626   0.01898   0.00146   0.00936  -0.02307
 0 C 3dx2-y2   0.00001   0.00000   0.00001   0.00000  -0.00001
  1 C 1s      -0.00008   0.00010  -0.00002  -0.00002  -0.00009
  1 C 2s       0.00019  -0.00022   0.00005   0.00005   0.00026
  1 C 3s       0.00017  -0.00001   0.00007   0.00000   0.00049
  1 C 2px      0.00009  -0.00013   0.00002   0.00004   0.00019
  1 C 2py     -0.00015   0.00021  -0.00003  -0.00003  -0.00031
  1 C 2pz     -0.22070   0.32922  -0.05494  -0.07501  -0.45046
  1 C 3px      0.00003  -0.00014   0.00002   0.00005   0.00010
  1 C 3py     -0.00004   0.00023  -0.00002  -0.00001  -0.00008
  1 C 3pz     -0.12731   0.25097  -0.04187  -0.05873  -0.35223
  1 C 3dxy     0.00001  -0.00001   0.00000  -0.00000   0.00000
  1 C 3dyz    -0.01086   0.01080   0.00890  -0.01436   0.00119
  1 C 3dz^2    0.00000  -0.00000  -0.00000   0.00001   0.00006
  1 C 3dxz     0.00626  -0.00217   0.01892  -0.02443   0.00479
 1 C 3dx2-y2   0.00001  -0.00001  -0.00001   0.00001  -0.00000
  2 C 1s       0.00002  -0.00002  -0.00003   0.00002   0.00001
  2 C 2s      -0.00005   0.00005   0.00007  -0.00008   0.00001
  2 C 3s      -0.00012  -0.00011  -0.00001   0.00006  -0.00018
  2 C 2px      0.00013  -0.00014  -0.00018   0.00024  -0.00016
  2 C 2py     -0.00012   0.00009   0.00013  -0.00012   0.00021
  2 C 2pz     -0.22061   0.21256   0.25739  -0.35228   0.29066
  2 C 3px      0.00014  -0.00005  -0.00011   0.00014  -0.00001
  2 C 3py     -0.00007   0.00009   0.00008  -0.00005   0.00019
  2 C 3pz     -0.12727   0.16205   0.19624  -0.27553   0.22724
  2 C 3dxy     0.00001   0.00001  -0.00001  -0.00001  -0.00002
  2 C 3dyz     0.00002  -0.01631   0.01342   0.01827   0.02217
  2 C 3dz^2    0.00002   0.00000  -0.00002  -0.00002  -0.00001
  2 C 3dxz     0.01254  -0.00674  -0.00816   0.00107  -0.00087
 2 C 3dx2-y2  -0.00001   0.00001  -0.00000  -0.00001  -0.00001
  3 C 1s      -0.00003  -0.00002   0.00003   0.00002   0.00002
  3 C 2s       0.00007   0.00004  -0.00006  -0.00007  -0.00004
  3 C 3s       0.00009   0.00014   0.00002  -0.00019   0.00008
  3 C 2px      0.00010   0.00005  -0.00018  -0.00023  -0.00007
  3 C 2py     -0.00011  -0.00007   0.00017   0.00023   0.00011
  3 C 2pz     -0.22058  -0.11702   0.31265   0.42770   0.16025
  3 C 3px      0.00006   0.00002  -0.00014  -0.00021  -0.00010
  3 C 3py     -0.00009  -0.00008   0.00011   0.00028   0.00009
  3 C 3pz     -0.12725  -0.08921   0.23837   0.33448   0.12523
  3 C 3dxy     0.00000   0.00002   0.00001  -0.00001   0.00002
  3 C 3dyz     0.01085  -0.00669  -0.01227   0.00391  -0.01388
  3 C 3dz^2   -0.00001   0.00002   0.00002  -0.00003   0.00003
  3 C 3dxz     0.00628   0.01900   0.00142  -0.00936   0.02306
 3 C 3dx2-y2  -0.00001  -0.00001   0.00000   0.00000  -0.00000
  4 C 1s      -0.00001  -0.00001   0.00000  -0.00003  -0.00001
  4 C 2s       0.00003   0.00003  -0.00001   0.00006   0.00005
  4 C 3s       0.00001  -0.00010  -0.00007   0.00007  -0.00015
  4 C 2px      0.00007   0.00007  -0.00001   0.00005   0.00011
  4 C 2py     -0.00019  -0.00030   0.00006  -0.00009  -0.00039
  4 C 2pz     -0.22066  -0.32916   0.05543  -0.07564  -0.45038
  4 C 3px      0.00004   0.00004  -0.00002   0.00003   0.00004
  4 C 3py     -0.00011  -0.00019   0.00006  -0.00011  -0.00024
  4 C 3pz     -0.12729  -0.25093   0.04228  -0.05907  -0.35222
  4 C 3dxy    -0.00000  -0.00000   0.00001   0.00001  -0.00000
  4 C 3dyz     0.01086   0.01078   0.00890   0.01437  -0.00119
  4 C 3dz^2   -0.00002  -0.00002  -0.00000  -0.00001   0.00001
  4 C 3dxz    -0.00627  -0.00221   0.01892   0.02443  -0.00479
 4 C 3dx2-y2  -0.00000  -0.00000  -0.00001  -0.00002   0.00000
  5 C 1s       0.00003   0.00003   0.00003   0.00004  -0.00002
  5 C 2s      -0.00006  -0.00006  -0.00009  -0.00011   0.00008
  5 C 3s       0.00000   0.00007  -0.00002  -0.00013   0.00019
  5 C 2px      0.00001   0.00000  -0.00000  -0.00000  -0.00001
  5 C 2py     -0.00015  -0.00014  -0.00020  -0.00026   0.00019
  5 C 2pz     -0.22069  -0.21225  -0.25758  -0.35250   0.29028
  5 C 3px     -0.00000   0.00005   0.00002  -0.00003   0.00003
  5 C 3py     -0.00009  -0.00009  -0.00016  -0.00022   0.00018
  5 C 3pz     -0.12732  -0.16179  -0.19640  -0.27561   0.22705
  5 C 3dxy    -0.00001  -0.00000  -0.00000  -0.00000   0.00000
  5 C 3dyz     0.00001  -0.01628   0.01346  -0.01828  -0.02217
  5 C 3dz^2    0.00000   0.00002  -0.00001   0.00001   0.00004
  5 C 3dxz    -0.01254  -0.00673  -0.00816  -0.00107   0.00087
 5 C 3dx2-y2   0.00001   0.00002  -0.00001   0.00002   0.00001
  6 H 1s      -0.00001   0.00001   0.00000  -0.00002   0.00002
  6 H 2s      -0.00001   0.00001   0.00001  -0.00001  -0.00001
  6 H 2px     -0.00000   0.00000  -0.00000  -0.00000   0.00000
  6 H 2py     -0.00000   0.00000  -0.00000   0.00000   0.00000
  6 H 2pz     -0.00523   0.00329  -0.00882   0.00669   0.00250
  7 H 1s       0.00004   0.00001   0.00001  -0.00004  -0.00011
  7 H 2s       0.00004   0.00002   0.00001  -0.00002  -0.00005
  7 H 2px      0.00000  -0.00001   0.00000  -0.00000   0.00001
  7 H 2py     -0.00000   0.00001  -0.00000  -0.00000  -0.00001
  7 H 2pz     -0.00523   0.00928  -0.00155  -0.00117  -0.00704
  8 H 1s      -0.00002  -0.00000  -0.00001   0.00003  -0.00001
  8 H 2s      -0.00001  -0.00001  -0.00002   0.00003  -0.00004
  8 H 2px      0.00000  -0.00000  -0.00000   0.00000  -0.00000
  8 H 2py     -0.00000   0.00000   0.00000  -0.00000   0.00000
  8 H 2pz     -0.00522   0.00599   0.00726  -0.00551   0.00454
  9 H 1s       0.00002   0.00002   0.00001   0.00002   0.00004
  9 H 2s       0.00002   0.00002   0.00000  -0.00000   0.00002
  9 H 2px      0.00000   0.00000  -0.00001  -0.00000  -0.00000
  9 H 2py     -0.00000  -0.00000   0.00000   0.00000  -0.00000
  9 H 2pz     -0.00522  -0.00330   0.00882   0.00669   0.00251
 10 H 1s      -0.00001  -0.00001   0.00001  -0.00001  -0.00002
 10 H 2s      -0.00001  -0.00002   0.00001   0.00000  -0.00002
 10 H 2px      0.00000   0.00000  -0.00000   0.00000   0.00000
 10 H 2py     -0.00001  -0.00001   0.00000   0.00000  -0.00000
 10 H 2pz     -0.00522  -0.00928   0.00156  -0.00118  -0.00704
 11 H 1s      -0.00001   0.00002   0.00001   0.00005  -0.00002
 11 H 2s      -0.00001   0.00002   0.00002   0.00004  -0.00003
 11 H 2px     -0.00000   0.00000   0.00000   0.00000  -0.00000
 11 H 2py     -0.00000  -0.00000  -0.00001  -0.00000   0.00000
 11 H 2pz     -0.00523  -0.00599  -0.00726  -0.00551   0.00454
               #6       
  0 C 1s      -0.00001
  0 C 2s       0.00002
  0 C 3s       0.00019
  0 C 2px      0.00012
  0 C 2py     -0.00025
  0 C 2pz     -0.38976
  0 C 3px      0.00018
  0 C 3py     -0.00014
  0 C 3pz     -0.30209
  0 C 3dxy     0.00000
  0 C 3dyz     0.00239
  0 C 3dz^2   -0.00001
  0 C 3dxz     0.00139
 0 C 3dx2-y2   0.00000
  1 C 1s       0.00007
  1 C 2s      -0.00020
  1 C 3s      -0.00064
  1 C 2px     -0.00016
  1 C 2py      0.00028
  1 C 2pz      0.38975
  1 C 3px     -0.00001
  1 C 3py      0.00001
  1 C 3pz      0.30207
  1 C 3dxy     0.00000
  1 C 3dyz    -0.00238
  1 C 3dz^2   -0.00009
  1 C 3dxz     0.00139
 1 C 3dx2-y2  -0.00000
  2 C 1s      -0.00002
  2 C 2s       0.00004
  2 C 3s       0.00030
  2 C 2px      0.00019
  2 C 2py     -0.00025
  2 C 2pz     -0.38962
  2 C 3px     -0.00001
  2 C 3py     -0.00022
  2 C 3pz     -0.30198
  2 C 3dxy     0.00000
  2 C 3dyz     0.00000
  2 C 3dz^2   -0.00003
  2 C 3dxz    -0.00277
 2 C 3dx2-y2   0.00000
  3 C 1s       0.00003
  3 C 2s      -0.00008
  3 C 3s      -0.00031
  3 C 2px     -0.00018
  3 C 2py      0.00021
  3 C 2pz      0.38958
  3 C 3px     -0.00007
  3 C 3py      0.00026
  3 C 3pz      0.30193
  3 C 3dxy     0.00000
  3 C 3dyz     0.00240
  3 C 3dz^2   -0.00003
  3 C 3dxz     0.00138
 3 C 3dx2-y2  -0.00001
  4 C 1s      -0.00001
  4 C 2s       0.00001
  4 C 3s       0.00014
  4 C 2px      0.00014
  4 C 2py     -0.00029
  4 C 2pz     -0.38968
  4 C 3px      0.00017
  4 C 3py     -0.00026
  4 C 3pz     -0.30203
  4 C 3dxy     0.00000
  4 C 3dyz    -0.00240
  4 C 3dz^2    0.00002
  4 C 3dxz     0.00137
 4 C 3dx2-y2   0.00001
  5 C 1s      -0.00002
  5 C 2s       0.00006
  5 C 3s       0.00009
  5 C 2px     -0.00004
  5 C 2py      0.00026
  5 C 2pz      0.38974
  5 C 3px     -0.00003
  5 C 3py      0.00021
  5 C 3pz      0.30208
  5 C 3dxy    -0.00000
  5 C 3dyz    -0.00000
  5 C 3dz^2    0.00003
  5 C 3dxz    -0.00276
 5 C 3dx2-y2   0.00000
  6 H 1s       0.00001
  6 H 2s       0.00002
  6 H 2px     -0.00000
  6 H 2py     -0.00000
  6 H 2pz     -0.00397
  7 H 1s       0.00011
  7 H 2s       0.00005
  7 H 2px     -0.00000
  7 H 2py      0.00000
  7 H 2pz      0.00396
  8 H 1s       0.00001
  8 H 2s       0.00004
  8 H 2px      0.00000
  8 H 2py     -0.00000
  8 H 2pz     -0.00396
  9 H 1s       0.00005
  9 H 2s       0.00003
  9 H 2px     -0.00000
  9 H 2py      0.00000
  9 H 2pz      0.00397
 10 H 1s       0.00001
 10 H 2s       0.00001
 10 H 2px      0.00000
 10 H 2py     -0.00001
 10 H 2pz     -0.00396
 11 H 1s      -0.00002
 11 H 2s      -0.00001
 11 H 2px      0.00000
 11 H 2py      0.00000
 11 H 2pz      0.00396
<CAS-nat-orb|mo-hf>  19  19    0.99996656
<CAS-nat-orb|mo-hf>  20  20    0.99985619
<CAS-nat-orb|mo-hf>  21  21    0.99985619
<CAS-nat-orb|mo-hf>  22  22    0.99765393
<CAS-nat-orb|mo-hf>  23  23    0.99765331
<CAS-nat-orb|mo-hf>  24  24    0.99799877
CASSCF energy = -230.607323345821
CASCI E = -230.607323345821  E(CI) = -6.48553933741186  S^2 = 0.0000000
Natrual Orbs
             #0      #1      #2      #3      #4      #5     
  0 C 2pz     -0.217   0.110  -0.309   0.396   0.142  -0.367
  0 C 3pz     -0.130          -0.245   0.402   0.144  -0.379
  1 C 2pz     -0.217   0.322                  -0.414   0.367
  1 C 3pz     -0.130   0.256                  -0.420   0.379
  2 C 2pz     -0.217   0.212   0.250  -0.321   0.272  -0.367
  2 C 3pz     -0.129   0.168   0.198  -0.325   0.276  -0.379
  3 C 2pz     -0.217  -0.111   0.309   0.396   0.142   0.367
  3 C 3pz     -0.129           0.245   0.402   0.144   0.379
  4 C 2pz     -0.217  -0.322                  -0.414  -0.367
  4 C 3pz     -0.130  -0.256                  -0.420  -0.379
  5 C 2pz     -0.217  -0.212  -0.250  -0.321   0.272   0.367
  5 C 3pz     -0.130  -0.168  -0.198  -0.325   0.276   0.379
***** CI components ******
 c**2   Gaussian-type vector
 0.884868  111000 
 0.021821  110100 
 0.021795  101010 
 c**2     ORCA-type vector
 0.884868  222000 
 0.021821  220200 
 0.021795  202020 
